<?xml version="1.0"?>
<VTKFile type="UnstructuredGrid"  version="0.1"  >
<UnstructuredGrid>
<Piece  NumberOfPoints="6486" NumberOfCells="12696">
<Points>
<DataArray  type="Float64"  NumberOfComponents="3"  format="ascii">0 5 0  0 0 0  5 0 0  5 5 0  2.5 0 0  5 2.5 0  2.5 5 0  0 2.5 0  2.5 2.5 0  0 1.25 0  1.25 0 0  1.25 5 0  0 3.75 0  5 1.25 0  3.75 0 0  5 3.75 0  3.75 5 0  3.541666666666667 1.458333333333333 0  1.458333333333333 3.541666666666667 0  1.875 1.25 0  3.75 3.125 0  1.284722222222222 2.326388888888889 0  2.683189655172414 3.767959770114943 0  0.9375 0.9375 0  4.0625 4.0625 0  0.7252209595959597 3.026357323232324 0  2.763480392156863 0.9129901960784315 0  1.875 4.345238095238095 0  4.345238095238095 1.875 0  4.192708333333333 0.8072916666666664 0  0.8072916666666665 4.192708333333334 0  3.368055555555555 2.326388888888889 0  0.6837606837606839 1.738782051282051 0  3.285485245626782 4.324328415208927 0  2.551239698778062 1.693130150610969 0  1.827256944444444 2.868923611111111 0  3.464875022477093 0.6813924607921316 0  1.942880513719175 2.059558626187995 0  3.04563492063492 2.971230158730159 0  4.375 3.4375 0  2.13639445139758 0.5994472256987903 0  4.272228422619047 2.606956845238095 0  0.625 0 0  0 0.625 0  5 4.375 0  4.375 5 0  0.6400043240752655 2.384646170113389 0  1.347691225855598 1.660875475110776 0  3.515783617857982 3.723905460714006 0  3.125 0 0  1.875 0 0  0.625 5 0  4.375 0 0  5 1.875 0  0 1.875 0  0 3.125 0  1.875 5 0  5 0.625 0  0 4.375 0  3.125 5 0  5 3.125 0  1.489644181965304 0.6007147273217681 0  2.054597701149425 3.742302955665024 0  2.662520990197781 4.39452575763237 0  2.415835363784578 3.165530021913244 0  0.8679986894865213 3.602373689486522 0  1.267459753787878 2.886186079545454 0  4.099702380952381 1.365327380952381 0  1.316964285714286 4.438244047619047 0  3.7915135293491 1.959691594758709 0  2.875141124191255 2.118761176511833 0  3.00418010501169 1.397414179299248 0  0.4081721322167092 3.410647930198662 0  0.4166666666666666 0.9375 0  1.014190407998288 0.4422301359994293 0  1.383260571305984 1.162718286082048 0  4.53125 3.90625 0  4.453125 4.453125 0  3.772848162504192 4.48678272083473 0  2.8125 0.404329517041716 0  0.4538690476190476 0.4538690476190476 0  2.305461739347387 1.04517007574828 0  3.771263799175824 2.624190260297553 0  3.229617768018734 1.809956994202883 0  3.780190884441317 1.025307111692601 0  4.646337365591398 0.9375 0  4.537623451379149 0.4609485750426037 0  1.200477888421151 3.934852888421152 0  0.3536626344086022 4.0625 0  0.4623765486208503 4.539051424957397 0  4.0625 0.353662634408602 0  4.560525106689535 1.390989100915847 0  3.958439078571988 3.619844539285994 0  4.672619047619047 2.1875 0  2.1875 4.672619047619047 0  1.862808494877602 3.325947624431087 0  0.3268135998175443 2.8125 0  4.674181280189791 2.8125 0  2.283233994935276 4.138623547175983 0  0.9375 4.677879119362977 0  3.08488061581743 3.469889594488945 0  3.113427375573758 3.913955730709506 0  1.652847799068813 3.950848935641292 0  2.932652662909449 2.550542739521724 0  3.311350648514189 1.088831994878698 0  0.6770833333333333 1.295851139601139 0  0 1.5625 0  1.047214787840024 1.96818092308125 0  4.183331482095785 3.03958703580843 0  3.4375 5 0  1.071307777252521 3.246275861010018 0  0 2.1875 0  0.386576856303419 2.03125 0  1.713862716483534 2.439783116849799 0  1.775396256975935 1.665976816304977 0  2.231236976948428 1.443917394671254 0  2.373900732409897 2.086930260150635 0  4.114918237574474 2.221646174618671 0  3.661302567757379 4.099620139144836 0  3.378215938602977 2.734494874063393 0  0.9842097536079312 2.597286741306247 0  1.642795138888889 4.672619047619047 0  4.0625 5 0  2.099458800960004 2.567446522665629 0  2.616202751603346 1.297895893940078 0  5 4.6875 0  0.9937554350075428 1.512592975947215 0  2.8125 5 0  3.002695327068194 4.614055254615477 0  3.205627424097207 0.3852436382721472 0  1.678616581261621 0.927556612265266 0  3.365326698305438 3.196943731162083 0  1.554834936170314 3.120009882655813 0  3.108408340729323 0.7797187795784133 0  3.684368918102174 0.3728877601163941 0  2.716214835303553 3.39276351922003 0  2.37718583984784 3.551973401560441 0  0.3750662445374837 1.52191994866787 0  2.679073487930202 2.844160731602957 0  1.557635869750078 1.991068682985722 0  1.812595698561088 0.3839273018252746 0  2.512014721281916 0.6320641118792227 0  2.1875 0 0  2.349973454443689 0.3189980586887866 0  4.6875 3.59375 0  4.636052949022233 3.178355898044465 0  4.6875 5 0  3.345485909784306 4.665765449101383 0  0.536727472389443 3.749603193819277 0  4.349541499640203 1.116201826262156 0  2.886559045931982 1.774013674579691 0  0.6770833333333334 0.7142857142857143 0  1.5625 0 0  4.120842096538671 4.628726497527622 0  2.176157474177018 1.793470423744689 0  2.175650736889416 2.909863021769539 0  4.036616464259081 1.709699085170981 0  3.887974623473683 0.6492597046022868 0  3.4375 0 0  3.70675699592552 2.289666624772415 0  4.697265625 4.208984375 0  2.815177577303495 4.085937578239174 0  4.672619047619047 1.730733296184288 0  4.6875 0 0  5 0.3125 0  0.3125 5 0  0 4.6875 0  0.3276089296588581 2.484526834811734 0  0.712433309515852 2.065138854645612 0  0.6376435912223634 2.711473454001295 0  1.184991292170422 0.7222504400947201 0  1.31884329779317 0.3206944232264773 0  3.683609198994263 3.44428698533042 0  0.3125 0 0  0 0.3125 0  4.231797269642997 3.789141808928991 0  1.564375596050781 1.425998687184973 0  2.007640894175573 0.9032106925568466 0  0.955125897558294 2.276666098587227 0  1.43898735721003 2.611310720271951 0  1.954491523717513 4.040700257877075 0  1.752947649777421 3.652439445419346 0  2.509575750247638 4.678021307664052 0  4.687194709705067 2.499965519538002 0  1.5625 5 0  0.9375 5 0  5 2.8125 0  2.1875 5 0  5 1.5625 0  5 2.1875 0  4.0625 0 0  5 0.9375 0  2.8125 0 0  0.9375 0 0  0 0.9375 0  0 2.8125 0  0 3.4375 0  0 4.0625 0  5 3.4375 0  5 4.0625 0  4.010848109290813 3.306446973933037 0  0.3077461147713075 3.119700563473354 0  4.6796875 4.6796875 0  2.333079012424948 3.845757959077508 0  0.7829771267899832 3.317744656243421 0  1.159100632608513 3.532487125138763 0  0.799066251840424 3.893573750162776 0  1.57326499580282 4.255438189102632 0  0.7309366047093668 0.2991402264438908 0  0.3054777494262156 1.223275888123843 0  4.027475154280377 2.78211326942427 0  2.35270874745988 4.426658168476266 0  3.474236283732569 2.021154281686229 0  4.401414236174444 2.329446628171927 0  3.39403781747337 3.987097102903034 0  1.077524329801934 1.214100792470484 0  4.065611571711903 1.066085524514197 0  2.165399002716117 3.335637450367864 0  3.007639563081306 1.093684039371638 0  4.030818285732145 4.351883315180857 0  3.504115222530889 1.739284194222036 0  1.224503368215566 4.712091441401919 0  3.805634204685714 1.321528442399996 0  4.319233123479386 1.573547993867769 0  1.024007670021325 4.394604704797005 0  3.776400432023095 3.839003324979723 0  2.991819819453308 4.320567175146181 0  0.9782797534072181 2.886406017887129 0  1.763835134082104 0.6602345487826022 0  3.765182288741625 1.631193038541544 0  2.267959593989681 2.345053543725764 0  4.412434895833333 4.168294270833333 0  4.4072265625 4.7255859375 0  2.791493971314009 3.11210833271929 0  3.408766223032414 3.469500900677365 0  1.915147569444444 4.725484476461039 0  2.070301968506271 0.2605666686358055 0  2.767932250651506 1.530295992695836 0  3.280065043173439 1.364863281105779 0  4.45101570110842 2.974157152713635 0  3.521928862999512 2.96990445010402 0  2.552921961347576 4.008414007169315 0  0.2682955376854191 3.657555015841003 0  3.084522868361304 2.310593316718068 0  2.669255823227708 1.939379494498064 0  2.615884629473921 2.238841231570381 0  1.405652091971449 0.8877813821442277 0  3.25151486618811 3.68536115104276 0  1.963741569810629 2.331207252264507 0  4.017297980292599 2.486269171379106 0  3.869168920841219 4.748188103831625 0  3.596868753579134 4.77342723825056 0  2.41262958240343 2.764128584995838 0  1.266750578673391 1.404747710001619 0  1.559243962241121 2.85146506328516 0  3.128799423834764 2.052081657715259 0  0.6770833333333333 0.9778025793650794 0  0.2083333333333333 0.78125 0  1.978224492765132 3.087074731032578 0  4.051448850909273 1.969392119104174 0  1.320577095006813 4.172234780971559 0  3.214261103850064 2.534397293281829 0  0.2635729089754111 1.779234736680035 0  3.510775680035133 4.460728640112889 0  2.603081405968802 0.2432579385496493 0  2.866341315154884 0.6662105505481998 0  3.000919221100777 0.2270278495648781 0  1.298858304121393 2.05917319923859 0  2.020292299736597 1.589794568392338 0  0.7401688396476035 4.470780315741533 0  0.6721783535561408 4.733125588707921 0  3.753712482075402 2.874301339727514 0  3.557348205914658 2.491958694539413 0  1.094565978195436 0.2011034254079851 0  0.9338148378011396 0.6833568465908735 0  2.945530578578538 3.701798332963805 0  3.111707186654356 3.216904195825605 0  1.341791111822685 3.293123262233967 0  1.632939924064587 1.184895891095613 0  0.6335477978936732 3.517393619499591 0  0.5576014611130192 3.210998966942492 0  1.564344196470102 0.3630498725895039 0  2.75362450242839 4.626680495816594 0  3.571304405229554 1.192452351107437 0  3.522934592621944 0.9359134489437148 0  4.453125 3.671875 0  4.765625 3.828125 0  1.055906321410838 4.14310472322957 0  4.795146539102229 0.46875 0  4.767156345199235 0.7178596932040019 0  0.2048534608977711 4.53125 0  0.232843654800765 4.282140306795998 0  0.5393715189906129 4.270810883024032 0  4.329922600274667 0.2750645887059072 0  4.275515096738972 0.5448389557295173 0  4.477747423652795 0.7252838358993123 0  0.2002829820452772 0.46875 0  0.4352678571428572 0.6956845238095237 0  0.5007241582667088 0.2123388122114133 0  4.672890923830735 0.2500902110494848 0  0.4308009280819452 4.783624996516437 0  2.104871305393774 4.438653689007242 0  0.2274454167838428 0.2274454167838428 0  3.446466574593436 0.4359605369011901 0  2.12354112127588 1.217588426759619 0  2.309175236825235 0.7888355970690434 0  2.556178570281936 1.054299163237582 0  0.578683248637
[...]
<PointData  Scalars="f_800-0"> 
<DataArray  type="Float64"  Name="f_800-0"  format="ascii">-1.1088774511757182e-01  -2.7581616694742500e-01  -1.0679431332436315e-01  -1.0140943090258624e-01  -1.9171822154586379e-01  -1.0662631770242226e-01  -1.0823383310527150e-01  -1.9276816567202817e-01  -1.8739917358251265e-01  -2.3522285080159641e-01  -2.3443738598954550e-01  -1.0726681996295859e-01  -1.4984717541237846e-01  -1.0663098878882984e-01  -1.4910240390993421e-01  -1.0687884620406125e-01  -1.0770698057547801e-01  -1.5603217506997158e-01  -1.5722240004232366e-01  -2.1313299620691273e-01  -1.4910795002481092e-01  -1.9844729773972591e-01  -1.4938568773442643e-01  -2.4161317408257468e-01  -1.3333316396080722e-01  -1.7476569397422698e-01  -1.8257581367385617e-01  -1.3034583119883028e-01  -1.2878100831465322e-01  -1.3374482713628630e-01  -1.3614711152853221e-01  -1.6232115590467697e-01  -2.1848731020998596e-01  -1.3048855056789505e-01  -1.9007115285809148e-01  -1.7997052781012363e-01  -1.5857254186768466e-01  -2.0444975034478177e-01  -1.6968802548552653e-01  -1.2803332368272197e-01  -2.0409742906673448e-01  -1.3130344070197489e-01  -2.5576551524463942e-01  -2.5637610697091956e-01  -1.0670336912875100e-01  -1.0716435514336257e-01  -1.9670115464841006e-01  -2.1995797908055140e-01  -1.4803508445789268e-01  -1.7004536105262205e-01  -2.1288788257074401e-01  -1.0987057442425963e-01  -1.2777493338410775e-01  -1.0640572082515566e-01  -2.1394692604128557e-01  -1.7129782376604802e-01  -1.0799901248059345e-01  -1.0671046224856216e-01  -1.3144821648957089e-01  -1.0799884084893097e-01  -1.0666256135385850e-01  -2.2624274148853768e-01  -1.5053128298605900e-01  -1.2821965570106236e-01  -1.6991174873966711e-01  -1.5506311036245407e-01  -1.7974479233430893e-01  -1.3696934294353055e-01  -1.2687298093966151e-01  -1.4771537395675408e-01  -1.7904181549602319e-01  -1.7451170783913603e-01  -1.6158573286580366e-01  -2.4575585742083245e-01  -2.4249194699243387e-01  -2.2902364417280566e-01  -1.2256060950596762e-01  -1.1985766770207919e-01  -1.2465521836929688e-01  -1.8097204137668663e-01  -2.5858376761861862e-01  -1.9850871601085812e-01  -1.4864086757398162e-01  -1.6697037061842987e-01  -1.4788125049855169e-01  -1.1846174709322928e-01  -1.2225882288472219e-01  -1.4374211186958238e-01  -1.3918204510968199e-01  -1.2299561550083438e-01  -1.3833411907554014e-01  -1.2116146811428812e-01  -1.4085073448919705e-01  -1.1759222629439799e-01  -1.1917546414362248e-01  -1.6456181236734690e-01  -1.8208287317626595e-01  -1.1753923780822033e-01  -1.3700951967954117e-01  -1.1828887463476410e-01  -1.5823571374546719e-01  -1.4441914455348379e-01  -1.4334397990267253e-01  -1.7642359417690107e-01  -1.6385080139568467e-01  -2.3352624394627688e-01  -2.2459753746131642e-01  -2.1065446491551265e-01  -1.3465166663575234e-01  -1.0788147782185421e-01  -1.6722351451722126e-01  -2.0331443551989373e-01  -2.0906544898653026e-01  -1.9450876565625402e-01  -2.1423837627756714e-01  -2.0097222852015789e-01  -1.9525506628601347e-01  -1.3654495891096208e-01  -1.3694864185635164e-01  -1.6185271617263500e-01  -1.8935037887300582e-01  -1.1859413580352546e-01  -1.0755783948012160e-01  -1.8976758291965765e-01  -1.8796596899599746e-01  -1.0504488573873375e-01  -2.2595466033960471e-01  -1.0815662899423231e-01  -1.2094604076720886e-01  -1.6739352820384884e-01  -2.1982251166012010e-01  -1.5992157396487272e-01  -1.7169241239831981e-01  -1.7084768194251659e-01  -1.5098841020346807e-01  -1.6203556430336230e-01  -1.5675538494593849e-01  -2.2588373124448727e-01  -1.7786505506017233e-01  -2.0962137546479112e-01  -2.1514213165196269e-01  -1.9113310976940115e-01  -2.0220109164632696e-01  -1.9658866079234810e-01  -1.1736895024229207e-01  -1.1895612777679637e-01  -1.0536651567934967e-01  -1.1879733309141938e-01  -1.4982143920949356e-01  -1.2835446293948438e-01  -1.7882359740033571e-01  -2.4983837279121912e-01  -2.2370828456865635e-01  -1.1914039426755001e-01  -2.0255520500287330e-01  -1.7858577861320155e-01  -1.3913601370487519e-01  -1.4405380214014124e-01  -1.5954799575655990e-01  -1.5066935132339335e-01  -1.1631257226664794e-01  -1.3875665084118641e-01  -1.1741144437798548e-01  -1.1715167868067503e-01  -1.0679030455154122e-01  -1.1124275695942142e-01  -1.2076867158824144e-01  -1.9318858422787508e-01  -2.0744088288340087e-01  -1.8545224380277489e-01  -2.3667819086372113e-01  -2.3207553168860293e-01  -1.4959610361655698e-01  -2.6646022971133115e-01  -2.6714106049403602e-01  -1.3202881696238783e-01  -2.2189252682839322e-01  -2.0861065766463588e-01  -2.0019955465184394e-01  -1.8886540396961440e-01  -1.4044881918849655e-01  -1.5350960231370261e-01  -1.1882539049081609e-01  -1.1707007937551385e-01  -1.0830668879045040e-01  -1.0789167996445630e-01  -1.0670180628492928e-01  -1.0795731773430230e-01  -1.0645455987484528e-01  -1.0648165172290275e-01  -1.3842522951573721e-01  -1.0681112609960759e-01  -1.8079568179254280e-01  -2.4506897538377267e-01  -2.4580726200545469e-01  -1.8196370538780016e-01  -1.6056611064962431e-01  -1.3836061570277425e-01  -1.0676893450845881e-01  -1.0691145651777939e-01  -1.4030301215142860e-01  -1.7149258839397727e-01  -1.1211055098885031e-01  -1.4696422617220142e-01  -1.6484285121991496e-01  -1.5758028943650668e-01  -1.4527236639511154e-01  -1.3312587912638310e-01  -2.5214433599203212e-01  -2.3606064205429533e-01  -1.3985258612169738e-01  -1.2759098584992828e-01  -1.5859832623942602e-01  -1.2673576335200271e-01  -1.4147231532929969e-01  -2.3380960918479268e-01  -1.3806737140647704e-01  -1.6411867404160094e-01  -1.7428968721400595e-01  -1.2747617119378402e-01  -1.5742174497639358e-01  -1.1803446251539090e-01  -1.4708579001789726e-01  -1.2949447334570729e-01  -1.2899580286873374e-01  -1.4210791902490308e-01  -1.3058722889297342e-01  -1.7955958832037822e-01  -2.1692442542229776e-01  -1.4840436824602721e-01  -1.9403999471156227e-01  -1.2447921966462486e-01  -1.1459253673548360e-01  -1.7013803100816569e-01  -1.5488662560574784e-01  -1.1700482855829612e-01  -2.0626908850417636e-01  -1.8272687868864065e-01  -1.6501979862918884e-01  -1.2526374822682879e-01  -1.5674834743494956e-01  -1.4130796591136863e-01  -1.5305920749192661e-01  -1.7193253054499430e-01  -1.8605342177522424e-01  -1.8739726905061324e-01  -2.2912590456499199e-01  -1.5113533059904907e-01  -1.9736430435721458e-01  -1.4004245963198469e-01  -1.1592034731477972e-01  -1.1518697794954501e-01  -1.8234771315946813e-01  -2.2727788802610557e-01  -1.8067928546502304e-01  -1.7048772833432246e-01  -2.4345868673903093e-01  -2.5104571678036625e-01  -1.7256971986471945e-01  -1.3872502020014757e-01  -1.3576927879801273e-01  -1.6745717720569273e-01  -2.1717614492359136e-01  -1.2576837521762393e-01  -1.8812833372164303e-01  -1.7901769341837856e-01  -1.7439376049297717e-01  -2.0751066327318110e-01  -2.0801935016034481e-01  -1.2529208062155445e-01  -1.1645167724277873e-01  -1.4913520008457207e-01  -1.5593393223715035e-01  -2.3972907326424703e-01  -2.4487685250163665e-01  -1.5160187874969475e-01  -1.6425988111803244e-01  -1.6573586235687299e-01  -2.2133116623622628e-01  -1.5806032644319612e-01  -1.6845032226952641e-01  -2.2373287977566908e-01  -1.2042579377039028e-01  -1.5503251453748157e-01  -1.5676106780903645e-01  -1.2529364033394419e-01  -1.1476345527077299e-01  -1.3682783589256869e-01  -1.1340955192329689e-01  -1.1453290651750998e-01  -1.2560069155514011e-01  -1.3153928660790382e-01  -1.3213239926513332e-01  -1.2933575874379291e-01  -1.3108503231889662e-01  -1.2421285525525590e-01  -2.6105343186226815e-01  -2.5295880807094656e-01  -2.6001899246027460e-01  -1.1765987231768069e-01  -1.1697056548061112e-01  -1.2705290648636661e-01  -2.6670991930373605e-01  -1.5908124357778522e-01  -2.0464455879655885e-01  -1.9828891152199499e-01  -1.8993838225687809e-01  -1.4258211974787757e-01  -1.6407026276415140e-01  -2.0094011813218068e-01  -1.4528283610093126e-01  -1.4509392891696321e-01  -1.1508672020003989e-01  -1.1418948080327226e-01  -1.1305594939132349e-01  -2.3618031749423141e-01  -1.4878167428256808e-01  -1.4868978365654026e-01  -1.7224102281594697e-01  -1.2843755624293879e-01  -1.7104643800301275e-01  -1.5105597072680740e-01  -2.1806624688653709e-01  -1.6368122489349285e-01  -1.5746415504934799e-01  -1.2883716431360789e-01  -2.1835847103631978e-01  -1.2512891124332332e-01  -1.3347897601397551e-01  -2.0053958364801891e-01  -1.1415068962604440e-01  -2.2991014662267117e-01  -1.9091061037859355e-01  -1.3551082516833429e-01  -1.3769136101801302e-01  -1.4119732433823443e-01  -1.1359990262859440e-01  -1.7872173056672122e-01  -1.8742691716254697e-01  -1.1198776479700820e-01  -1.2332234327301282e-01  -2.0431611297727922e-01  -1.6476323992735686e-01  -1.6370734597505351e-01  -1.3136135323829901e-01  -1.5418248772801121e-01  -1.1207006363113702e-01  -1.3761046557326720e-01  -1.8060854340614360e-01  -1.1514867537642903e-01  -1.8803772078473038e-01  -2.2600795635829848e-01  -2.3794564956863284e-01  -2.3893793939138747e-01  -1.6385253232529101e-01  -1.6598670267504892e-01  -1.9798086755573518e-01  -1.1197718724351266e-01  -1.1201246337989954e-01  -1.1317530600589078e-01  -1.1712080212968901e-01  -1.0700403089188755e-01  -1.4183581340019671e-01  -1.3129335879622059e-01  -1.8202144719602956e-01  -1.1222813772069262e-01  -1.7237260672113713e-01  -1.3466826683212563e-01  -1.3724572441301214e-01  -1.4666246855590157e-01  -1.8174624828203970e-01  -1.7705361268342684e-01  -2.5017722792575386e-01  -1.2517568870569074e-01  -1.6335443674645070e-01  -1.9935376406078253e-01  -1.9533275325072227e-01  -1.1326796018883926e-01  -2.1461783811466725e-01  -2.1596490664294768e-01  -2.1838176346609842e-01  -2.0842612347104991e-01  -1.4227927858771325e-01  -1.8721690150587930e-01  -1.5692528601197001e-01  -1.7129038877738456e-01  -1.4383948944732403e-01  -1.3396879910974388e-01  -1.2150834163167931e-01  -1.7308369439477470e-01  -1.9111066299141571e-01  -2.3552358260775108e-01  -1.2633763271841589e-01  -2.1548819577324041e-01  -2.1098148656478932e-01  -1.2811561291200385e-01  -1.7495181190253650e-01  -1.6513674583587779e-01  -1.2062088857205956e-01  -1.8352145021484595e-01  -2.4295751289596521e-01  -2.1056306794612506e-01  -1.4348983866108653e-01  -1.3219199120759831e-01  -1.7340626080413976e-01  -1.3336262114592784e-01  -1.1614962544675668e-01  -1.7227832868341092e-01  -2.2057448594162279e-01  -1.1165435754775491e-01  -1.9580077667699664e-01  -1.9273515770840810e-01  -1.9732981182830153e-01  -1.2753185030563052e-01  -1.6103135215241604e-01  -1.7247625519739573e-01  -1.5468256245738210e-01  -2.3203860684881567e-01  -2.0327911820845418e-01  -1.0747977045448576e-01  -1.8900538838022948e-01  -1.4546259608215939e-01  -1.4580589709068886e-01  -1.2575753322479286e-01  -1.8495337650478053e-01  -1.9452670992698709e-01  -1.5102139408766868e-01  -1.5459848248831889e-01  -1.4268264797272714e-01  -1.3701346714831800e-01  -2.2900771234566572e-01  -1.7642085804351085e-01  -1.1323746685386817e-01  -1.2166147306807396e-01  -1.3794810461466975e-01  -1.9076828295726242e-01  -1.4157358079357241e-01  -1.8131091964591964e-01  -1.3736690131875617e-01  -2.2645767003837194e-01  -1.2201418247470562e-01  -1.5959844165199619e-01  -2.0245353165746885e-01  -1.5278413945090835e-01  -1.1015137269425176e-01  -2.1441857720316154e-01  -1.5949619234603951e-01  -1.8109146712277685e-01  -2.1101479047422123e-01  -1.2247373287123346e-01  -1.6343280567993268e-01  -2.0366494119888362e-01  -1.2552331790532084e-01  -1.1693957808444308e-01  -1.2440294430228663e-01  -1.0790670254624163e-01  -2.0820597894826509e-01  -2.2696129104650781e-01  -1.8452111173187963e-01  -2.2340009163985347e-01  -1.5771311031266982e-01  -1.6903472244206166e-01  -1.9102980801718422e-01  -1.3314749430201059e-01  -1.3516492889999665e-01  -1.8452738119143372e-01  -1.2351228317014218e-01  -2.1191826588576149e-01  -1.6937394296358244e-01  -2.3215981721049619e-01  -1.4467348829360988e-01  -2.2381467522371434e-01  -2.1599772425093441e-01  -1.9734471885086058e-01  -1.8534788569294136e-01  -1.8540714689422988e-01  -1.5615024983500475e-01  -1.5050494806120540e-01  -1.6731348722888356e-01  -2.4570403547156142e-01  -1.0865542328194051e-01  -1.2147167034433067e-01  -1.1955714471517125e-01  -1.2288891621533968e-01  -1.9626747930646454e-01  -1.0799387426594369e-01  -2.2506590633041715e-01  -2.0258645082319837e-01  -1.9521053932588903e-01  -1.3202613472155392e-01  -1.7527797051968225e-01  -1.7676131292502767e-01  -1.3382219869041609e-01  -1.7322094780140254e-01  -1.0638050566934559e-01  -1.1824316445321961e-01  -1.4649857041344036e-01  -1.2945831140414357e-01  -1.4782688783591494e-01  -1.2887455009134419e-01  -1.4141015097447099e-01  -1.6693348016929832e-01  -1.9219676028737481e-01  -2.5042498672897273e-01  -1.0669860496282735e-01  -1.1245767658111058e-01  -1.1371795424296789e-01  -2.1237705830473425e-01  -1.5262074484920277e-01  -1.5566319403646525e-01  -1.5368251212701775e-01  -1.1414927065316513e-01  -2.0898002990876860e-01  -1.3452957392421450e-01  -2.0951185312336990e-01  -2.0622427394430848e-01  -1.4200366426714986e-01  -1.5518978393130942e-01  -1.4256248522444956e-01  -1.1275385917735252e-01  -1.1311805213639456e-01  -2.0050051124155166e-01  -2.2078798943755268e-01  -1.8519987832531981e-01  -1.1998891113121489e-01  -1.2744529158484788e-01  -1.4933868967711028e-01  -1.5684788109142594e-01  -1.5257188954638445e-01  -1.4652220287767584e-01  -1.3916508402532046e-01  -1.3103777400677147e-01  -1.3326583846815995e-01  -1.9353787414473231e-01  -1.0661216226270513e-01  -1.3464516539220034e-01  -1.3606936820374171e-01  -1.4296551630546006e-01  -1.1198884110079989e-01  -1.2000814505301129e-01  -1.1278312331679556e-01  -1.0661917350864081e-01  -1.3157445374393564e-01  -1.3286190204649131e-01  -2.0284366406759333e-01  -2.0177815567511512e-01  -1.6472306051050417e-01  -1.2455516185598421e-01  -1.1346582578195426e-01  -1.6171989441235568e-01  -1.1141839229475084e-01  -1.2007102405884386e-01  -1.8464810987829164e-01  -1.8006007423922665e-01  -1.1954726307240988e-01  -1.2840932810086464e-01  -1.5941263833476793e-01  -2.1403098129729234e-01  -1.4304192225025095e-01  -1.2176315561380384e-01  -1.2343991071732950e-01  -2.5414502881036921e-01  -2.4862117726296920e-01  -2.4591778568466738e-01  -1.5148425232580004e-01  -1.1185584520655735e-01  -1.5604750305839468e-01  -2.1925414020848336e-01  -1.1202711146840343e-01  -1.2115037231428746e-01  -1.7325835272986448e-01  -1.6073501454954228e-01  -1.3288978256257147e-01  -1.0967541955410141e-01  -1.6813727185889185e-01  -1.2115356451466952e-01  -1.1220881644794008e-01  -2.2142609226533247e-01  -1.7506452084274887e-01  -1.6205146102704163e-01  -1.2302910241157536e-01  -1.1177551950473645e-01  -1.5737185739207807e-01  -1.4674451027088289e-01  -2.3763901592097730e-01  -1.6934116085258161e-01  -1.0689146441412113e-01  -1.8355705542815154e-01  -2.1008119980728729e-01  -1.8520056248712929e-01  -1.5562132082424171e-01  -1.9101103843453968e-01  -1.8991656915443711e-01  -2.0263796684579319e-01  -1.2329337132390299e-01  -1.4893720151053674e-01  -2.5558279051277488e-01  -1.8550236767158901e-01  -2.3070029382090179e-01  -2.3419170841879319e-01  -2.3000101046714047e-01  -2.4007175039588191e-01  -2.4038602807583515e-01  -1.1192503267427216e-01  -1.0645101786615078e-01  -1.7813221075527100e-01  -1.7796783361945528e-01  -1.8452229192728878e-01  -1.8015941927734205e-01  -2.5608009748035554e-01  -1.5088059501798581e-01  -1.1920987660703766e-01  -2.0756842274594911e-01  -1.2705152950482931e-01  -1.2355849648813434e-01  -1.2064296411155367e-01  -1.4386026702152943e-01  -1.2349488228319842e-01  -2.0281372393595409e-01  -1.3590582620553832e-01  -1.7716341330810453e-01  -1.2318317688492458e-01  -1.1894787643145266e-01  -2.7156479362648600e-01  -2.7066019676912723e-01  -1.3265132536999788e-01  -1.8617788630703858e-01  -1.1583248218386466e-01  -2.6211731227160273e-01  -1.3528715644771311e-01  -1.1134092900727131e-01  -2.2627315137306223e-01  -2.2339059515174539e-01  -1.6157216751510320e-01  -1.3717247587880768e-01  -1.6775959093917561e-01  -2.0367252545288689e-01  -1.0767432877163401e-01  -2.5482835534420945e-01  -1.2598779518221251e-01  -1.3838192035669272e-01  -2.0959845922700887e-01  -1.3088056234044804e-01  -2.3873187216470057e-01  -1.6294792414176620e-01  -1.3168786940994176e-01  -1.3858881356121946e-01  -1.5182187378834483e-01  -1.3301041247433276e-01  -1.5940828635063201e-01  -1.6572763807373039e-01  -1.9262434657314040e-01  -1.5452812273543012e-01  -1.4354752754608366e-01  -1.1729970139005294e-01  -1.1158694773576036e-01  -1.3386058010271684e-01  -1.9271081572329435e-01  -1.1321966027165323e-01  -1.1175634938535475e-01  -1.9695693490766447e-01  -1.0647031109313222e-01  -1.0827205783376304e-01  -1.0767041407009530e-01  -1.1546034300008130e-01  -1.1047508943372060e-01  -1.0858476351644529e-01  -1.6590730169464005e-01  -1.0884018103662799e-01  -1.0671505553687818e-01  -1.5434125883014518e-01  -1.6479998979694566e-01  -1.0656261921469062e-01  -1.0667131059749936e-01  -1.0668282459675742e-01  -2.0864352655965140e-01  -1.9803814220929836e-01  -1.8739383946482718e-01  -1.0803693155803121e-01  -2.2994191837724562e-01  -2.1836388831152903e-01  -1.4373067080313237e-01  -1.4438454281682692e-01  -1.1065698304996266e-01  -2.6107812967338045e-01  -1.2629273915344530e-01  -1.0679771290848349e-01  -2.3974934702476217e-01  -1.7545077711218690e-01  -2.6164390154441858e-01  -2.5112946571025019e-01  -1.0770387518216530e-01  -1.0603173566733447e-01  -1.0367386959654375e-01  -1.0377997423423778e-01  -1.7665420303541357e-01  -1.0803985904534742e-01  -2.4054478616362657e-01  -1.0685356157610432e-01  -1.0701924182029444e-01  -1.0673293291600705e-01  -1.4740636275802363e-01  -1.2823724262530212e-01  -1.6695194283715131e-01  -1.1326651357723895e-01  -1.7641190991452710e-01  -1.1435389671606892e-01  -2.3334129500026204e-01  -2.3000493153008747e-01  -2.3776082641781618e-01  -1.2363910613839874e-01  -2.4775601922784951e-01  -2.1346943140710628e-01  -2.3773127873887281e-01  -1.4051772633867490e-01  -1.9173050137509084e-01  -2.0366219466642591e-01  -1.3545109752531675e-01  -1.7678988832894976e-01  -1.7182792159175211e-01  -1.6704696649735887e-01  -1.8736561949826430e-01  -2.3090186402149609e-01  -2.4073078417739385e-01  -1.2271169516350613e-01  -1.4969999049261773e-01  -1.4558952117801852e-01  -1.2859769809026259e-01  -2.2357805704988043e-01  -1.1230687260308307e-01  -1.7334873600466882e-01  -1.3851320751835350e-01  -1.9605544496869010e-01  -2.1299684944036890e-01  -1.7402107707888859e-01  -1.4215600455412261e-01  -1.7802876857854869e-01  -2.0558136211851005e-01  -1.9930602798618130e-01  -1.4594885540074892e-01  -1.2012268989983776e-01  -2.1578940298944055e-01  -1.2970604209375533e-01  -1.2570772384396703e-01  -1.7770385540535813e-01  -1.6187046929386995e-01  -2.1794703254987294e-01  -1.5836932286576186e-01  -2.3179879228588957e-01  -1.2350594736964968e-01  -1.6314063252269886e-01  -1.6023298531583183e-01  -1.3270339155103517e-01  -1.4535608710862019e-01  -1.4322050075742163e-01  -1.3620123133603229e-01  -1.3707264481429524e-01  -1.3122768964127371e-01  -1.8223858809629470e-01  -1.3822157747305280e-01  -1.5606591055924093e-01  -1.8802256385191521e-01  -1.5027464969347318e-01  -1.4738141821841574e-01  -1.1753161987207583e-01  -1.7541636377999814e-01  -1.5248324701949134e-01  -1.4960772326784369e-01  -1.3647318393178662e-01  -1.4220920989942623e-01  -1.6953034421463534e-01  -1.6733481642366493e-01  -1.6005875129752331e-01  -1.9867131191147638e-01  -1.2897081677017339e-01  -1.2404719912812083e-01  -1.2319504832161873e-01  -1.2716236984678048e-01  -1.3048641806012398e-01  -1.2409082242033871e-01  -1.2097016576102254e-01  -1.6814171253321686e-01  -1.7748382235371063e-01  -1.2401209981047719e-01  -1.1303994189860833e-01  -1.2790758821628403e-01  -1.6056620109293585e-01  -1.8007554331814363e-01  -1.9561621435897247e-01  -1.6668770446554468e-01  -1.4011175127121950e-01  -2.1833952473156834e-01  -1.8602726081632870e-01  -1.1890740883245410e-01  -2.2283308699192683e-01  -1.4757430292412432e-01  -1.301166