<?xml version="1.0"?>
<VTKFile type="UnstructuredGrid"  version="0.1"  >
<UnstructuredGrid>
<Piece  NumberOfPoints="6486" NumberOfCells="12696">
<Points>
<DataArray  type="Float64"  NumberOfComponents="3"  format="ascii">0 5 0  0 0 0  5 0 0  5 5 0  2.5 0 0  5 2.5 0  2.5 5 0  0 2.5 0  2.5 2.5 0  0 1.25 0  1.25 0 0  1.25 5 0  0 3.75 0  5 1.25 0  3.75 0 0  5 3.75 0  3.75 5 0  3.541666666666667 1.458333333333333 0  1.458333333333333 3.541666666666667 0  1.875 1.25 0  3.75 3.125 0  1.284722222222222 2.326388888888889 0  2.683189655172414 3.767959770114943 0  0.9375 0.9375 0  4.0625 4.0625 0  0.7252209595959597 3.026357323232324 0  2.763480392156863 0.9129901960784315 0  1.875 4.345238095238095 0  4.345238095238095 1.875 0  4.192708333333333 0.8072916666666664 0  0.8072916666666665 4.192708333333334 0  3.368055555555555 2.326388888888889 0  0.6837606837606839 1.738782051282051 0  3.285485245626782 4.324328415208927 0  2.551239698778062 1.693130150610969 0  1.827256944444444 2.868923611111111 0  3.464875022477093 0.6813924607921316 0  1.942880513719175 2.059558626187995 0  3.04563492063492 2.971230158730159 0  4.375 3.4375 0  2.13639445139758 0.5994472256987903 0  4.272228422619047 2.606956845238095 0  0.625 0 0  0 0.625 0  5 4.375 0  4.375 5 0  0.6400043240752655 2.384646170113389 0  1.347691225855598 1.660875475110776 0  3.515783617857982 3.723905460714006 0  3.125 0 0  1.875 0 0  0.625 5 0  4.375 0 0  5 1.875 0  0 1.875 0  0 3.125 0  1.875 5 0  5 0.625 0  0 4.375 0  3.125 5 0  5 3.125 0  1.489644181965304 0.6007147273217681 0  2.054597701149425 3.742302955665024 0  2.662520990197781 4.39452575763237 0  2.415835363784578 3.165530021913244 0  0.8679986894865213 3.602373689486522 0  1.267459753787878 2.886186079545454 0  4.099702380952381 1.365327380952381 0  1.316964285714286 4.438244047619047 0  3.7915135293491 1.959691594758709 0  2.875141124191255 2.118761176511833 0  3.00418010501169 1.397414179299248 0  0.4081721322167092 3.410647930198662 0  0.4166666666666666 0.9375 0  1.014190407998288 0.4422301359994293 0  1.383260571305984 1.162718286082048 0  4.53125 3.90625 0  4.453125 4.453125 0  3.772848162504192 4.48678272083473 0  2.8125 0.404329517041716 0  0.4538690476190476 0.4538690476190476 0  2.305461739347387 1.04517007574828 0  3.771263799175824 2.624190260297553 0  3.229617768018734 1.809956994202883 0  3.780190884441317 1.025307111692601 0  4.646337365591398 0.9375 0  4.537623451379149 0.4609485750426037 0  1.200477888421151 3.934852888421152 0  0.3536626344086022 4.0625 0  0.4623765486208503 4.539051424957397 0  4.0625 0.353662634408602 0  4.560525106689535 1.390989100915847 0  3.958439078571988 3.619844539285994 0  4.672619047619047 2.1875 0  2.1875 4.672619047619047 0  1.862808494877602 3.325947624431087 0  0.3268135998175443 2.8125 0  4.674181280189791 2.8125 0  2.283233994935276 4.138623547175983 0  0.9375 4.677879119362977 0  3.08488061581743 3.469889594488945 0  3.113427375573758 3.913955730709506 0  1.652847799068813 3.950848935641292 0  2.932652662909449 2.550542739521724 0  3.311350648514189 1.088831994878698 0  0.6770833333333333 1.295851139601139 0  0 1.5625 0  1.047214787840024 1.96818092308125 0  4.183331482095785 3.03958703580843 0  3.4375 5 0  1.071307777252521 3.246275861010018 0  0 2.1875 0  0.386576856303419 2.03125 0  1.713862716483534 2.439783116849799 0  1.775396256975935 1.665976816304977 0  2.231236976948428 1.443917394671254 0  2.373900732409897 2.086930260150635 0  4.114918237574474 2.221646174618671 0  3.661302567757379 4.099620139144836 0  3.378215938602977 2.734494874063393 0  0.9842097536079312 2.597286741306247 0  1.642795138888889 4.672619047619047 0  4.0625 5 0  2.099458800960004 2.567446522665629 0  2.616202751603346 1.297895893940078 0  5 4.6875 0  0.9937554350075428 1.512592975947215 0  2.8125 5 0  3.002695327068194 4.614055254615477 0  3.205627424097207 0.3852436382721472 0  1.678616581261621 0.927556612265266 0  3.365326698305438 3.196943731162083 0  1.554834936170314 3.120009882655813 0  3.108408340729323 0.7797187795784133 0  3.684368918102174 0.3728877601163941 0  2.716214835303553 3.39276351922003 0  2.37718583984784 3.551973401560441 0  0.3750662445374837 1.52191994866787 0  2.679073487930202 2.844160731602957 0  1.557635869750078 1.991068682985722 0  1.812595698561088 0.3839273018252746 0  2.512014721281916 0.6320641118792227 0  2.1875 0 0  2.349973454443689 0.3189980586887866 0  4.6875 3.59375 0  4.636052949022233 3.178355898044465 0  4.6875 5 0  3.345485909784306 4.665765449101383 0  0.536727472389443 3.749603193819277 0  4.349541499640203 1.116201826262156 0  2.886559045931982 1.774013674579691 0  0.6770833333333334 0.7142857142857143 0  1.5625 0 0  4.120842096538671 4.628726497527622 0  2.176157474177018 1.793470423744689 0  2.175650736889416 2.909863021769539 0  4.036616464259081 1.709699085170981 0  3.887974623473683 0.6492597046022868 0  3.4375 0 0  3.70675699592552 2.289666624772415 0  4.697265625 4.208984375 0  2.815177577303495 4.085937578239174 0  4.672619047619047 1.730733296184288 0  4.6875 0 0  5 0.3125 0  0.3125 5 0  0 4.6875 0  0.3276089296588581 2.484526834811734 0  0.712433309515852 2.065138854645612 0  0.6376435912223634 2.711473454001295 0  1.184991292170422 0.7222504400947201 0  1.31884329779317 0.3206944232264773 0  3.683609198994263 3.44428698533042 0  0.3125 0 0  0 0.3125 0  4.231797269642997 3.789141808928991 0  1.564375596050781 1.425998687184973 0  2.007640894175573 0.9032106925568466 0  0.955125897558294 2.276666098587227 0  1.43898735721003 2.611310720271951 0  1.954491523717513 4.040700257877075 0  1.752947649777421 3.652439445419346 0  2.509575750247638 4.678021307664052 0  4.687194709705067 2.499965519538002 0  1.5625 5 0  0.9375 5 0  5 2.8125 0  2.1875 5 0  5 1.5625 0  5 2.1875 0  4.0625 0 0  5 0.9375 0  2.8125 0 0  0.9375 0 0  0 0.9375 0  0 2.8125 0  0 3.4375 0  0 4.0625 0  5 3.4375 0  5 4.0625 0  4.010848109290813 3.306446973933037 0  0.3077461147713075 3.119700563473354 0  4.6796875 4.6796875 0  2.333079012424948 3.845757959077508 0  0.7829771267899832 3.317744656243421 0  1.159100632608513 3.532487125138763 0  0.799066251840424 3.893573750162776 0  1.57326499580282 4.255438189102632 0  0.7309366047093668 0.2991402264438908 0  0.3054777494262156 1.223275888123843 0  4.027475154280377 2.78211326942427 0  2.35270874745988 4.426658168476266 0  3.474236283732569 2.021154281686229 0  4.401414236174444 2.329446628171927 0  3.39403781747337 3.987097102903034 0  1.077524329801934 1.214100792470484 0  4.065611571711903 1.066085524514197 0  2.165399002716117 3.335637450367864 0  3.007639563081306 1.093684039371638 0  4.030818285732145 4.351883315180857 0  3.504115222530889 1.739284194222036 0  1.224503368215566 4.712091441401919 0  3.805634204685714 1.321528442399996 0  4.319233123479386 1.573547993867769 0  1.024007670021325 4.394604704797005 0  3.776400432023095 3.839003324979723 0  2.991819819453308 4.320567175146181 0  0.9782797534072181 2.886406017887129 0  1.763835134082104 0.6602345487826022 0  3.765182288741625 1.631193038541544 0  2.267959593989681 2.345053543725764 0  4.412434895833333 4.168294270833333 0  4.4072265625 4.7255859375 0  2.791493971314009 3.11210833271929 0  3.408766223032414 3.469500900677365 0  1.915147569444444 4.725484476461039 0  2.070301968506271 0.2605666686358055 0  2.767932250651506 1.530295992695836 0  3.280065043173439 1.364863281105779 0  4.45101570110842 2.974157152713635 0  3.521928862999512 2.96990445010402 0  2.552921961347576 4.008414007169315 0  0.2682955376854191 3.657555015841003 0  3.084522868361304 2.310593316718068 0  2.669255823227708 1.939379494498064 0  2.615884629473921 2.238841231570381 0  1.405652091971449 0.8877813821442277 0  3.25151486618811 3.68536115104276 0  1.963741569810629 2.331207252264507 0  4.017297980292599 2.486269171379106 0  3.869168920841219 4.748188103831625 0  3.596868753579134 4.77342723825056 0  2.41262958240343 2.764128584995838 0  1.266750578673391 1.404747710001619 0  1.559243962241121 2.85146506328516 0  3.128799423834764 2.052081657715259 0  0.6770833333333333 0.9778025793650794 0  0.2083333333333333 0.78125 0  1.978224492765132 3.087074731032578 0  4.051448850909273 1.969392119104174 0  1.320577095006813 4.172234780971559 0  3.214261103850064 2.534397293281829 0  0.2635729089754111 1.779234736680035 0  3.510775680035133 4.460728640112889 0  2.603081405968802 0.2432579385496493 0  2.866341315154884 0.6662105505481998 0  3.000919221100777 0.2270278495648781 0  1.298858304121393 2.05917319923859 0  2.020292299736597 1.589794568392338 0  0.7401688396476035 4.470780315741533 0  0.6721783535561408 4.733125588707921 0  3.753712482075402 2.874301339727514 0  3.557348205914658 2.491958694539413 0  1.094565978195436 0.2011034254079851 0  0.9338148378011396 0.6833568465908735 0  2.945530578578538 3.701798332963805 0  3.111707186654356 3.216904195825605 0  1.341791111822685 3.293123262233967 0  1.632939924064587 1.184895891095613 0  0.6335477978936732 3.517393619499591 0  0.5576014611130192 3.210998966942492 0  1.564344196470102 0.3630498725895039 0  2.75362450242839 4.626680495816594 0  3.571304405229554 1.192452351107437 0  3.522934592621944 0.9359134489437148 0  4.453125 3.671875 0  4.765625 3.828125 0  1.055906321410838 4.14310472322957 0  4.795146539102229 0.46875 0  4.767156345199235 0.7178596932040019 0  0.2048534608977711 4.53125 0  0.232843654800765 4.282140306795998 0  0.5393715189906129 4.270810883024032 0  4.329922600274667 0.2750645887059072 0  4.275515096738972 0.5448389557295173 0  4.477747423652795 0.7252838358993123 0  0.2002829820452772 0.46875 0  0.4352678571428572 0.6956845238095237 0  0.5007241582667088 0.2123388122114133 0  4.672890923830735 0.2500902110494848 0  0.4308009280819452 4.783624996516437 0  2.104871305393774 4.438653689007242 0  0.2274454167838428 0.2274454167838428 0  3.446466574593436 0.4359605369011901 0  2.12354112127588 1.217588426759619 0  2.309175236825235 0.7888355970690434 0  2.556178570281936 1.054299163237582 0  0.578683248637
[...]
<PointData  Scalars="f_800-0"> 
<DataArray  type="Float64"  Name="f_800-0"  format="ascii">-3.0861697441312924e-01  -4.7355468868587819e-01  -3.0453250230976642e-01  -2.9914790836226768e-01  -3.8945674328342278e-01  -3.0436477065117523e-01  -3.0596504008479747e-01  -3.9050664233098215e-01  -3.8513769532004255e-01  -4.3296137253984501e-01  -4.3217590772777253e-01  -3.0499450453868998e-01  -3.4758494935869128e-01  -3.0436935424901168e-01  -3.4684092563715957e-01  -3.0461732954502058e-01  -3.0544542126698393e-01  -3.5377069680705892e-01  -3.5496085873089001e-01  -4.1087151794488580e-01  -3.4684647174743488e-01  -3.9618581947746617e-01  -3.4712420940718147e-01  -4.3935169582088279e-01  -3.3107168552778410e-01  -3.7250415358697692e-01  -3.8031433541116977e-01  -3.2808263811470378e-01  -3.2651952942302503e-01  -3.3148334859350725e-01  -3.3388392437886927e-01  -3.6005967763973884e-01  -4.1622583194802987e-01  -3.2822707089072045e-01  -3.8780967459563603e-01  -3.7770904954716022e-01  -3.5631106360819886e-01  -4.0218827208266250e-01  -3.6742654722211043e-01  -3.2577184478059934e-01  -4.0183595080456053e-01  -3.2904196212135112e-01  -4.5350403698302760e-01  -4.5411462870931091e-01  -3.0444186287860620e-01  -3.0490282776237532e-01  -3.9443967639735389e-01  -4.1769650081865017e-01  -3.4577360617146946e-01  -3.6778388278988555e-01  -4.1062640430870762e-01  -3.0759957898588053e-01  -3.2551345031159357e-01  -3.0414415175841919e-01  -4.1168544775653459e-01  -3.6903615472429740e-01  -3.0572775163536853e-01  -3.0444876295962991e-01  -3.2918428688177070e-01  -3.0573644250008208e-01  -3.0440102924153362e-01  -4.2398126322667939e-01  -3.4826980268875235e-01  -3.2595812159936655e-01  -3.6765027047500326e-01  -3.5280113039050637e-01  -3.7748331411457114e-01  -3.3470786466330138e-01  -3.2460848485179011e-01  -3.4545389569237211e-01  -3.7678033723318555e-01  -3.7225022957612752e-01  -3.5932390868139230e-01  -4.4349437915916046e-01  -4.4023046873073479e-01  -4.2676216591098376e-01  -3.2029912968483171e-01  -3.1759618773497150e-01  -3.2239373735790566e-01  -3.7871056311392676e-01  -4.5632228935702551e-01  -3.9624723774858478e-01  -3.4637938929823053e-01  -3.6470889235484305e-01  -3.4561977225336554e-01  -3.1620025065122892e-01  -3.1999733216208737e-01  -3.4147962862392045e-01  -3.3691910663013647e-01  -3.2072992731150052e-01  -3.3607264055971053e-01  -3.1889998506911710e-01  -3.3858925617847674e-01  -3.1533074018993223e-01  -3.1691045686342745e-01  -3.6230033409609819e-01  -3.7982131460348478e-01  -3.1527775280547760e-01  -3.3474797855776750e-01  -3.1602200668942426e-01  -3.5597423547576706e-01  -3.4215766618535165e-01  -3.4108200906972491e-01  -3.7416211591396303e-01  -3.6158932313256031e-01  -4.3126476568450178e-01  -4.2233605920023498e-01  -4.0839298665345525e-01  -3.3239018819862853e-01  -3.0561982289265116e-01  -3.6496198317840489e-01  -4.0105295582951389e-01  -4.0680397073085506e-01  -3.9224728739390369e-01  -4.1197689801557302e-01  -3.9871075025793423e-01  -3.9299358802369300e-01  -3.3428348055287049e-01  -3.3468716336493753e-01  -3.5959123790747033e-01  -3.8708890059975182e-01  -3.1632763495148097e-01  -3.0529629680180909e-01  -3.8750610465721064e-01  -3.8570449073347923e-01  -3.0278338023100959e-01  -4.2369318207775558e-01  -3.0589171223966016e-01  -3.1868451757488370e-01  -3.6513204994118292e-01  -4.1756103339818396e-01  -3.5766009569949730e-01  -3.6943093417466749e-01  -3.6858620367943867e-01  -3.4872693195861704e-01  -3.5977408603467165e-01  -3.5449390666264285e-01  -4.2362225298261519e-01  -3.7560357679731221e-01  -4.0735989720274074e-01  -4.1288065338996055e-01  -3.8887163150695842e-01  -3.9993961338411393e-01  -3.9432718253002741e-01  -3.1510746691419711e-01  -3.1669464538573128e-01  -3.0310499832413956e-01  -3.1653584066058993e-01  -3.4755922820239965e-01  -3.2609298375805779e-01  -3.7656211913747639e-01  -4.4757689452958599e-01  -4.2144680630676551e-01  -3.1687891063586088e-01  -4.0029372674068270e-01  -3.7632430035005887e-01  -3.3687453540065959e-01  -3.4179232391061581e-01  -3.5728651749852247e-01  -3.4840787305607113e-01  -3.1405108974464896e-01  -3.3649517214252495e-01  -3.1514995729218526e-01  -3.1489015017636002e-01  -3.0452854606797775e-01  -3.0897239862385389e-01  -3.1850230209263547e-01  -3.9092710422970617e-01  -4.0517940462068303e-01  -3.8319076395045770e-01  -4.3441671260197245e-01  -4.2981405342680756e-01  -3.4733462534246168e-01  -4.6419875144976491e-01  -4.6487958223246773e-01  -3.2976733845386769e-01  -4.1963104856649508e-01  -4.0634917940253884e-01  -3.9793807638899786e-01  -3.8660392570745933e-01  -3.3818711529772261e-01  -3.5124810650818117e-01  -3.1656233346143797e-01  -3.1480859217076257e-01  -3.0603533474374905e-01  -3.0561941575502966e-01  -3.0444026613445480e-01  -3.0568651645847705e-01  -3.0419296281341518e-01  -3.0422009552841528e-01  -3.3616375076614546e-01  -3.0454946648331527e-01  -3.7853420352975703e-01  -4.4280749712209239e-01  -4.4354578374378045e-01  -3.7970213040771039e-01  -3.5830424990231236e-01  -3.3609748594391980e-01  -3.0450741148780147e-01  -3.0464994538666484e-01  -3.3804153382442814e-01  -3.6923092531895396e-01  -3.0984906606742096e-01  -3.4470274784684524e-01  -3.6258113448967055e-01  -3.5531855439859261e-01  -3.4300992577688938e-01  -3.3086254307424484e-01  -4.4988285773040132e-01  -4.3379916379254224e-01  -3.3759110780525126e-01  -3.2532895399610662e-01  -3.5633684797504334e-01  -3.2447428394167821e-01  -3.3921083692511395e-01  -4.3154813092304484e-01  -3.3580589317118104e-01  -3.6185719577157377e-01  -3.7202820895102640e-01  -3.2521469202586489e-01  -3.5516026671343398e-01  -3.1576761582924345e-01  -3.4482431176425132e-01  -3.2723299460275812e-01  -3.2673164722511261e-01  -3.3984644071714704e-01  -3.2832574927936620e-01  -3.7729811030425514e-01  -4.1466294716032209e-01  -3.4614288998125425e-01  -3.9177851644925099e-01  -3.2221774061784164e-01  -3.1233105043267917e-01  -3.6787655274437414e-01  -3.5262514733640865e-01  -3.1473804528692656e-01  -4.0400761024203746e-01  -3.8046540042595289e-01  -3.6275832036599015e-01  -3.2300226882154082e-01  -3.5448686916748667e-01  -3.3904648729607878e-01  -3.5079712396634521e-01  -3.6967105228165825e-01  -3.8379194351265911e-01  -3.8513579078810295e-01  -4.2686442630316729e-01  -3.4887385231348544e-01  -3.9510282609496161e-01  -3.3778098133704088e-01  -3.1365885426269829e-01  -3.1292547900350748e-01  -3.8008623489678245e-01  -4.2501640976429228e-01  -3.7841780719949425e-01  -3.6822625007084564e-01  -4.4119720847735849e-01  -4.4878423851872878e-01  -3.7030824160131315e-01  -3.3646354187865590e-01  -3.3350611029168375e-01  -3.6519569894179493e-01  -4.1491466666143972e-01  -3.2350689383381803e-01  -3.8586685545911192e-01  -3.7675621515556301e-01  -3.7213228223003819e-01  -4.0524918501107671e-01  -4.0575787189824258e-01  -3.2302713408245726e-01  -3.1418389261756169e-01  -3.4687372180702447e-01  -3.5367245396948610e-01  -4.3746759500252408e-01  -4.4261537423995795e-01  -3.4934040045505144e-01  -3.6199840285343360e-01  -3.6347437806895405e-01  -4.1906968797431077e-01  -3.5579842114375726e-01  -3.6618862920384609e-01  -4.2147140151377993e-01  -3.1816400448093252e-01  -3.5277103627664574e-01  -3.5449958954940053e-01  -3.2303216104687360e-01  -3.1250196943401243e-01  -3.3456473572361584e-01  -3.1114800328021636e-01  -3.1227137999542870e-01  -3.2333566230118832e-01  -3.2927533415216464e-01  -3.2986865985260982e-01  -3.2707427744380396e-01  -3.2882355260212226e-01  -3.2195137056935136e-01  -4.5879195360068770e-01  -4.5069732980933475e-01  -4.5775751419868477e-01  -3.1539835807156535e-01  -3.1470298207083347e-01  -3.2478988199815972e-01  -4.6444844104217181e-01  -3.5681976531865950e-01  -4.0238308053439853e-01  -3.9602743325971423e-01  -3.8767690399441090e-01  -3.4031948493073322e-01  -3.6180878449982168e-01  -3.9867863986996316e-01  -3.4302035960016586e-01  -3.4283245063039347e-01  -3.1282521370964733e-01  -3.1192798034971297e-01  -3.1079446478155381e-01  -4.3391883923248087e-01  -3.4651976804779805e-01  -3.4642755386279755e-01  -3.6997954455276405e-01  -3.2617607738471638e-01  -3.6878495973968345e-01  -3.4879449247879935e-01  -4.1580476862458338e-01  -3.6141974681427180e-01  -3.5520267722262849e-01  -3.2657568544521859e-01  -4.1609699277436113e-01  -3.2286743147268798e-01  -3.3121746174976924e-01  -3.9827810540368613e-01  -3.1188919374976742e-01  -4.2764866836083565e-01  -3.8864913211811825e-01  -3.3324934675534246e-01  -3.3542988268174340e-01  -3.3893584611764599e-01  -3.1133341299827094e-01  -3.7646018159734301e-01  -3.8516537884885138e-01  -3.0972626660160746e-01  -3.2106086294825037e-01  -4.0205463471514735e-01  -3.6250176166550285e-01  -3.6144586771177734e-01  -3.2909987439700111e-01  -3.5192100947639521e-01  -3.0980856898725334e-01  -3.3534898691947429e-01  -3.7834706514339755e-01  -3.1288084814248640e-01  -3.8577624252218906e-01  -4.2374647809644084e-01  -4.3568417130691778e-01  -4.3667646112966152e-01  -3.6159105406252240e-01  -3.6372495942486144e-01  -3.9571939009842139e-01  -3.0971568603962701e-01  -3.0975096088074300e-01  -3.1091130772746234e-01  -3.1485324761299305e-01  -3.0474253679975033e-01  -3.3957433508890372e-01  -3.2903188024782604e-01  -3.7975996893332348e-01  -3.0996663863066104e-01  -3.7011112845811606e-01  -3.3240678802116175e-01  -3.3498333368893624e-01  -3.4440090095754561e-01  -3.7948477001939096e-01  -3.7479200380897876e-01  -4.4791574966411168e-01  -3.2291420969412821e-01  -3.6109295848034373e-01  -3.9709228579857203e-01  -3.9307127498839212e-01  -3.1100592209099032e-01  -4.1235635985267238e-01  -4.1370342838096363e-01  -4.1612028520417715e-01  -4.0616464520897116e-01  -3.4001780032404033e-01  -3.8495542324330473e-01  -3.5466380774456496e-01  -3.6902891051233511e-01  -3.4157799262256811e-01  -3.3170674105718007e-01  -3.1924685970372912e-01  -3.7082221613240146e-01  -3.8884918472897589e-01  -4.3326210434599055e-01  -3.2407321265745248e-01  -4.1322671751108753e-01  -4.0872000830277100e-01  -3.2585413417781406e-01  -3.7269033363956944e-01  -3.6287526757339927e-01  -3.1835940750005010e-01  -3.8125997195210748e-01  -4.4069603463427082e-01  -4.0830158967278180e-01  -3.4122836038875448e-01  -3.2993051261670631e-01  -3.7114478254071936e-01  -3.3110114268246893e-01  -3.1388806999633478e-01  -3.7001685040201793e-01  -4.1831300767970886e-01  -3.0939273094141839e-01  -3.9353929841466989e-01  -3.9047367944601530e-01  -3.9506833356600951e-01  -3.2527037021750849e-01  -3.5876961841469518e-01  -3.7021474743302929e-01  -3.5242108418815027e-01  -4.2977712858703732e-01  -4.0101763994631190e-01  -3.0520742694849673e-01  -3.8674391011779768e-01  -3.4320111770829026e-01  -3.4354441880770820e-01  -3.2349605155420613e-01  -3.8269189822598032e-01  -3.9226523166699334e-01  -3.4875940780242348e-01  -3.5233700422011244e-01  -3.4042116963988722e-01  -3.3475198876062046e-01  -4.2674623408383572e-01  -3.7415937978027086e-01  -3.1096897995308431e-01  -3.1939583018360806e-01  -3.3568662622290285e-01  -3.8850680469480720e-01  -3.3931111633173494e-01  -3.7904944138315072e-01  -3.3510542257730885e-01  -4.2419619177651419e-01  -3.1975269915134508e-01  -3.5733656553904730e-01  -4.0019205339529268e-01  -3.5052266120032488e-01  -3.0788987821837166e-01  -4.1215709894118058e-01  -3.5723471407962243e-01  -3.7882998886003111e-01  -4.0875331221215938e-01  -3.2021223563128737e-01  -3.6117132741050262e-01  -4.0140346297406965e-01  -3.2326181300217716e-01  -3.1467809517645984e-01  -3.2214146414482780e-01  -3.0563554027859952e-01  -4.0594450068616400e-01  -4.2469981278466346e-01  -3.8225963346923991e-01  -4.2113861337782377e-01  -3.5545163203921709e-01  -3.6677324417890927e-01  -3.8876833060367921e-01  -3.3088601460342387e-01  -3.3290344976357739e-01  -3.8226590344250549e-01  -3.2124744614086559e-01  -4.0965678762368363e-01  -3.6711246470044256e-01  -4.2989833894870605e-01  -3.4241201004211708e-01  -4.2155319696182769e-01  -4.1373624598894743e-01  -3.9508324058855815e-01  -3.8308640743034034e-01  -3.8314566863162575e-01  -3.5388877155242432e-01  -3.4824346974986975e-01  -3.6505200896352635e-01  -4.4344255720988673e-01  -3.0638365421574654e-01  -3.1921018746051016e-01  -3.1729566347436428e-01  -3.2062346795987173e-01  -3.9400600104371647e-01  -3.0573198485766589e-01  -4.2280442806854662e-01  -4.0032497256099631e-01  -3.9294906106347222e-01  -3.2976246766470158e-01  -3.7301649231807843e-01  -3.7449983466213010e-01  -3.3156072021946220e-01  -3.7095946953819353e-01  -3.0411892493004122e-01  -3.1598168088684675e-01  -3.4423709213922543e-01  -3.2719683193459215e-01  -3.4556456808898550e-01  -3.2661307149779228e-01  -3.3914867273531379e-01  -3.6467200190534199e-01  -3.8993528202500194e-01  -4.4816350846732961e-01  -3.0443695481468036e-01  -3.1019613681495872e-01  -3.1145008514129080e-01  -4.1011558004269150e-01  -3.5035866421577283e-01  -3.5340121170061828e-01  -3.5142103386409523e-01  -3.1188777396742196e-01  -4.0671855164667631e-01  -3.3226809195043422e-01  -4.0725037486128801e-01  -4.0396279568208171e-01  -3.3974218598967704e-01  -3.5292776628890471e-01  -3.4029987684539131e-01  -3.1048452244156338e-01  -3.1084905263524515e-01  -3.9823903297930846e-01  -4.1852651117562761e-01  -3.8293840006276392e-01  -3.1772742709100654e-01  -3.2518095491706300e-01  -3.4707702681301966e-01  -3.5458640282561948e-01  -3.5031041128219609e-01  -3.4426072459422763e-01  -3.3690212984488499e-01  -3.2877629540324027e-01  -3.3100436007414447e-01  -3.9127639588234087e-01  -3.0435054758553959e-01  -3.3238368698758602e-01  -3.3380788988711124e-01  -3.4070403802519805e-01  -3.0972734862510137e-01  -3.1774666393808654e-01  -3.1052163206569705e-01  -3.0435737360932885e-01  -3.2931253579713571e-01  -3.3060042359279973e-01  -4.0058218580639277e-01  -3.9951667741287472e-01  -3.6246158224649594e-01  -3.2229367908639095e-01  -3.1120430434739210e-01  -3.5945841614709978e-01  -3.0915690239796328e-01  -3.1780954408069828e-01  -3.8238663161567643e-01  -3.7779859597642812e-01  -3.1728576550405319e-01  -3.2614488603800573e-01  -3.5715116024742810e-01  -4.1176950303527676e-01  -3.4078044395049117e-01  -3.1949832605459000e-01  -3.2117842190031687e-01  -4.5188355054875767e-01  -4.4635969900133243e-01  -4.4365630742300571e-01  -3.4922277422270293e-01  -3.0959425367784199e-01  -3.5378602479074933e-01  -4.1699266195129719e-01  -3.0976558757525019e-01  -3.1888420869618866e-01  -3.7099687446686569e-01  -3.5847353628647494e-01  -3.3062830254936931e-01  -3.0741393056333560e-01  -3.6587579359503958e-01  -3.1889207970197175e-01  -3.0994732717913898e-01  -4.1916461400339861e-01  -3.7280304175343254e-01  -3.5978998275707924e-01  -3.2076762167552103e-01  -3.0951401183078081e-01  -3.5511036513821848e-01  -3.4448303196351981e-01  -4.3537753765923609e-01  -3.6707968258938317e-01  -3.0462995067004961e-01  -3.8129557716556339e-01  -4.0781972154463758e-01  -3.8293908422206785e-01  -3.5335984255279057e-01  -3.8874956025998952e-01  -3.8765509089198646e-01  -4.0037648858359581e-01  -3.2103189120059639e-01  -3.4667572324663032e-01  -4.5332131225116434e-01  -3.8324087149604330e-01  -4.2843881555909330e-01  -4.3193023015701865e-01  -4.2773953220532374e-01  -4.3781027213416507e-01  -4.3812454981411925e-01  -3.0966352835367023e-01  -3.0418945665186881e-01  -3.7587073249233610e-01  -3.7570635535594299e-01  -3.8226081366467918e-01  -3.7789792395044053e-01  -4.5381861921875011e-01  -3.4861911674446977e-01  -3.1694839268062497e-01  -4.0530694448383026e-01  -3.2479005057393528e-01  -3.2129701367873104e-01  -3.1838148386770504e-01  -3.4159878864066140e-01  -3.2123340230052860e-01  -4.0055224567376468e-01  -3.3364434781917168e-01  -3.7490193504517932e-01  -3.2092132402611007e-01  -3.1668381808850493e-01  -4.6930331536493242e-01  -4.6839871850757003e-01  -3.3038984692594642e-01  -3.8391640804443272e-01  -3.1357100063211518e-01  -4.5985583401002472e-01  -3.3302369927202385e-01  -3.0907936839896533e-01  -4.2401167311121857e-01  -4.2112911688988608e-01  -3.5931068925138376e-01  -3.3491099750107378e-01  -3.6549811272322974e-01  -4.0141104719070658e-01  -3.0541277963191010e-01  -4.5256687708259341e-01  -3.2372631073052405e-01  -3.3612044208067887e-01  -4.0733698096492432e-01  -3.2861908363542469e-01  -4.3647039390297820e-01  -3.6068613320723958e-01  -3.2942453924115561e-01  -3.3632625922258036e-01  -3.4956038900868835e-01  -3.3074893394761384e-01  -3.5714680809191524e-01  -3.6346615980978303e-01  -3.9036286831076172e-01  -3.5226664445012834e-01  -3.4128604924771039e-01  -3.1503821541121063e-01  -3.0932544365046355e-01  -3.3159706979561554e-01  -3.9044931614558842e-01  -3.1095686884166657e-01  -3.0949485176882402e-01  -3.9469545664534644e-01  -3.0420878832582998e-01  -3.0600085019230711e-01  -3.0540888129577715e-01  -3.1319193721154154e-01  -3.0820414539359725e-01  -3.0631825841018406e-01  -3.6364555196546877e-01  -3.0656908079617284e-01  -3.0445352825086941e-01  -3.5207978057478184e-01  -3.6253851153530475e-01  -3.0430106773896676e-01  -3.0440976722863777e-01  -3.0442128827070519e-01  -4.0638204827080798e-01  -3.9577664716158489e-01  -3.8513229333753657e-01  -3.0576692689507151e-01  -4.2768044011543699e-01  -4.1610241004956999e-01  -3.4146919244196600e-01  -3.4212198410106809e-01  -3.0838638991368739e-01  -4.5881665141179423e-01  -3.2402786373789766e-01  -3.0453598783980307e-01  -4.3748786876303847e-01  -3.7318929884926244e-01  -4.5938242328283291e-01  -4.4886798744861151e-01  -3.0544229384105953e-01  -3.0377023006721421e-01  -3.0141236184209258e-01  -3.0151845922526599e-01  -3.7439258838001138e-01  -3.0577642073251154e-01  -4.3828330790191150e-01  -3.0459204226419273e-01  -3.0475773403151041e-01  -3.0447125750572801e-01  -3.4514488449617875e-01  -3.2597557442966291e-01  -3.6469046456572279e-01  -3.1099795008650249e-01  -3.7415043165161427e-01  -3.1208913246583048e-01  -4.3107981673849066e-01  -4.2774345326829916e-01  -4.3549934815610136e-01  -3.2137762636319217e-01  -4.4549454096618907e-01  -4.1120795314512376e-01  -4.3546980047713285e-01  -3.3825493414138469e-01  -3.8946902311264825e-01  -4.0140071640424813e-01  -3.3318883805013993e-01  -3.7452828110415948e-01  -3.6956625985178715e-01  -3.6478524385424271e-01  -3.8510410852438498e-01  -4.2864038575968993e-01  -4.3846930591568239e-01  -3.2045021416558206e-01  -3.4743851219194799e-01  -3.4332800626359627e-01  -3.2633621920237604e-01  -4.2131657878802087e-01  -3.1004537401166016e-01  -3.7108710327849109e-01  -3.3625160699641410e-01  -3.9379396670642075e-01  -4.1073537117824610e-01  -3.7175959881577364e-01  -3.3989417935114768e-01  -3.7576729031570455e-01  -4.0331988385637607e-01  -3.9704454972395181e-01  -3.4368737716972098e-01  -3.1786120707955418e-01  -4.1352792472745808e-01  -3.2744456335513022e-01  -3.2344624417671214e-01  -3.7544237714075146e-01  -3.5960899102916111e-01  -4.1568555428791393e-01  -3.5610784459914779e-01  -4.2953731402409434e-01  -3.2124446747709945e-01  -3.6087908323793721e-01  -3.5797144257896724e-01  -3.3044191225004305e-01  -3.4309460882205917e-01  -3.4095902246929199e-01  -3.3393975295297096e-01  -3.3481116647014852e-01  -3.2896395349727786e-01  -3.7997701698143843e-01  -3.3596009004305699e-01  -3.5380401448378318e-01  -3.8576108558940170e-01  -3.4801247739593277e-01  -3.4511909235831123e-01  -3.1526984446662032e-01  -3.7315488551693748e-01  -3.5022176875848621e-01  -3.4734624501438371e-01  -3.3420998939555574e-01  -3.3994772376380861e-01  -3.6726870517807925e-01  -3.6507322126012304e-01  -3.5779692363858939e-01  -3.9640983364921972e-01  -3.2670933669444724e-01  -3.2178404733371246e-01  -3.2093260733935336e-01  -3.2489791113434258e-01  -3.2822244639047665e-01  -3.2182562180858731e-01  -3.1870867554388599e-01  -3.6588023426959460e-01  -3.7522234409082961e-01  -3.2175062009844996e-01  -3.1077843766790186e-01  -3.2564610926774140e-01  -3.5830472284123988e-01  -3.7781406505919357e-01  -3.9335473616896832e-01  -3.6442622620158099e-01  -3.3785027282370178e-01  -4.1607804646962665e-01  -3.8376578255373928e-01  -3.1664591962069621e-01  -4.2057160873003396e-01  -3.4531282468934604e-01  -3.278551