<?xml version="1.0"?>
<VTKFile type="UnstructuredGrid"  version="0.1"  >
<UnstructuredGrid>
<Piece  NumberOfPoints="6454" NumberOfCells="12638">
<Points>
<DataArray  type="Float64"  NumberOfComponents="3"  format="ascii">0 1.5 0  0 0 0  1.5 0 0  1.5 1.5 0  0.75 0 0  1.5 0.75 0  0.75 1.5 0  0 0.75 0  0.75 0.75 0  0 0.375 0  0.375 0 0  0.375 1.5 0  0 1.125 0  1.5 0.375 0  1.125 0 0  1.5 1.125 0  1.125 1.5 0  1.0625 0.4375 0  0.4375 1.0625 0  0.5625 0.375 0  1.125 0.9375 0  0.3854166666666667 0.6979166666666666 0  0.8049568965517241 1.130387931034483 0  0.28125 0.28125 0  1.21875 1.21875 0  0.2175662878787879 0.9079071969696969 0  0.5625 1.303571428571429 0  0.8290441176470589 0.2738970588235294 0  1.303571428571429 0.5625 0  1.2578125 0.2421875 0  0.2421875 1.2578125 0  1.010416666666667 0.6979166666666666 0  0.2051282051282051 0.5216346153846153 0  0.9856455736880344 1.297298524562678 0  0.7653719096334186 0.5079390451832908 0  0.5481770833333334 0.8606770833333333 0  1.039462506743128 0.2044177382376396 0  0.5828641541157527 0.6178675878563986 0  0.9136904761904763 0.8913690476190476 0  1.3125 1.03125 0  0.6409183354192741 0.1798341677096371 0  1.281668526785714 0.7820870535714286 0  0.1875 0 0  0 0.1875 0  1.5 1.3125 0  1.3125 1.5 0  0.1920012972225798 0.7153938510340165 0  0.4043073677566794 0.4982626425332328 0  1.054735085357395 1.117171638214202 0  0.9375 0 0  0.5625 0 0  0.1875 1.5 0  1.3125 0 0  1.5 0.5625 0  0 0.5625 0  0 0.9375 0  0.5625 1.5 0  1.5 0.1875 0  0 1.3125 0  0.9375 1.5 0  1.5 0.9375 0  0.4468932545895913 0.1802144181965304 0  0.7987562970593343 1.318357727289711 0  0.6320399113235965 1.037924776639822 0  0.2603996068459564 1.080712106845956 0  0.3802379261363636 0.8658558238636362 0  0.3950892857142857 1.331473214285714 0  1.229910714285714 0.4095982142857143 0  1.13745405880473 0.5879074784276126 0  0.7482946595664349 0.917427298948138 0  0.8625423372573767 0.63562835295355 0  0.9012540315035069 0.4192242537897745 0  0.6862861647268528 1.220560482834343 0  0.1224516396650128 1.023194379059598 0  0.125 0.28125 0  0.3042571223994863 0.1326690407998288 0  0.4149781713917952 0.3488154858246145 0  1.359375 1.171875 0  1.3359375 1.3359375 0  1.131854448751258 1.346034816250419 0  0.84375 0.1212988551125148 0  0.1361607142857143 0.1361607142857143 0  0.691638521804216 0.3135510227244841 0  1.131379139752747 0.7872570780892659 0  0.9688853304056201 0.5429870982608649 0  1.134057265332395 0.3075921335077801 0  0.1060987903225806 1.21875 0  0.1387129645862553 1.361715427487219 0  1.393901209677419 0.28125 0  1.361287035413745 0.1382845725127811 0  1.21875 0.1060987903225807 0  0.3601433665263453 1.180455866526345 0  0.5483798738512705 1.157949853770241 0  1.36815753200686 0.4172967302747542 0  1.187531723571597 1.085953361785798 0  1.401785714285714 0.65625 0  0.65625 1.401785714285714 0  0.09804407994526333 0.84375 0  1.402254384056937 0.84375 0  0.28125 1.403363735808893 0  0.925464184745229 1.040966878346683 0  0.9340282126721275 1.174186719212852 0  0.8797957988728348 0.7651628218565172 0  0.9934051945542568 0.3266495984636094 0  0.203125 0.3887553418803418 0  0.3141644363520071 0.590454276924375 0  0 0.46875 0  1.254999444628736 0.9118761107425289 0  1.03125 1.5 0  0.3213923331757561 0.9738827583030052 0  0 0.65625 0  0.1159730568910257 0.609375 0  0.5141588149450601 0.7319349350549398 0  0.5326188770927806 0.499793044891493 0  0.6693710930845284 0.4331752184013763 0  0.7121702197229691 0.6260790780451906 0  1.234475471272342 0.6664938523856012 0  1.098390770327214 1.229886041743451 0  1.013464781580893 0.8203484622190179 0  0.2952629260823795 0.7791860223918741 0  0.4928385416666666 1.401785714285714 0  1.21875 1.5 0  0.6298376402880013 0.7702339567996885 0  0.7848608254810038 0.3893687681820236 0  1.5 1.40625 0  0.4622923140598757 1.236370233688302 0  0.4667991207677928 0.9473088592382519 0  0.2981266305022628 0.4537778927841646 0  0.84375 1.5 0  0.9008085981204581 1.384216576384643 0  0.9616882272291621 0.1155730914816442 0  0.5035849743784865 0.2782669836795798 0  1.009598009491631 0.9590831193486247 0  1.105310675430652 0.1118663280349183 0  0.9288474621627256 0.2227857609567891 0  0.7464170347051563 1.031945227193052 0  0.1125198733612451 0.4565759846003609 0  0.841690222029119 0.9722978654718903 0  0.4672907609250232 0.5973206048957169 0  0.5437787095683263 0.1151781905475824 0  0.7536044163845748 0.1896192335637668 0  0.65625 0 0  0.7049920363331066 0.09569941760663599 0  1.40625 1.078125 0  1.39081588470667 0.9535067694133395 0  1.40625 1.5 0  0.6375104178177308 0.9268732242701165 0  1.003645772935292 1.399729634730415 0  0.1610182417168329 1.124880958145783 0  1.304862449892061 0.3348605478786471 0  0.8685031591756179 0.5174815394805063 0  0.203125 0.2142857142857143 0  0.46875 0 0  1.236252628961601 1.388617949258287 0  0.6528472422531054 0.5380411271234069 0  0.8059365139027533 0.8342920789922936 0  1.210984939277725 0.5129097255512943 0  1.166392387042105 0.1947779113806861 0  1.03125 0 0  1.112027098777656 0.6868999874317245 0  1.4091796875 1.2626953125 0  0.7056210334910562 1.122831931927321 0  0.8445532731910484 1.225781273471752 0  1.401785714285714 0.5192199888552865 0  0.5315992325579575 1.02511262900491 0  1.40625 0 0  1.5 0.09375 0  0.09375 1.5 0  0 1.40625 0  0.09828267889765753 0.7453580504435201 0  0.2137299928547555 0.6195416563936835 0  0.191293077366709 0.8134420362003882 0  0.395652989337951 0.09620832696794322 0  0.3786395303236629 0.2546156254865724 0  1.105082759698279 1.033286095599126 0  0.09375 0 0  0 0.09375 0  1.269539180892899 1.136742542678697 0  0.4693126788152344 0.427799606155492 0  0.6022922682526717 0.2709632077670539 0  0.286537769267488 0.682999829576168 0  0.431696207163009 0.7833932160815852 0  0.6864071374811688 0.8459705255349474 0  0.7528727250742914 1.403406392299215 0  1.40615841291152 0.7499896558614008 0  0.46875 1.5 0  0.28125 1.5 0  1.5 0.84375 0  0.65625 1.5 0  1.5 0.46875 0  1.5 0.65625 0  1.21875 0 0  1.5 0.28125 0  0.84375 0 0  0.28125 0 0  0 0.28125 0  0 0.84375 0  0 1.03125 0  0 1.21875 0  1.5 1.03125 0  1.5 1.21875 0  1.203254432787244 0.991934092179911 0  0.7018429057870754 1.316240552056942 0  0.09232383443139219 0.9359101690420062 0  1.40390625 1.40390625 0  0.2348931380369949 0.995323396873026 0  0.3477301897825538 1.059746137541629 0  0.2397198755521273 1.168072125048833 0  0.21928098141281 0.08974206793316726 0  0.09164332482786468 0.3669827664371529 0  0.4604861261832766 1.147925083553434 0  1.208242546284113 0.8346339808272811 0  1.042270885119771 0.6063462845058686 0  1.320424270852333 0.6988339884515781 0  1.018211345242011 1.19612913087091 0  0.3232572989405801 0.3642302377411452 0  1.219683471513571 0.319825657354259 0  0.9022918689243919 0.3281052118114913 0  1.209245485719643 1.305564994554257 0  1.051234566759267 0.5217852582666107 0  0.3673510104646698 1.413627432420576 0  1.295769937043816 0.4720643981603306 0  0.3072023010063974 1.318381411439101 0  1.141690261405714 0.3964585327199988 0  1.132920129606929 1.151700997493917 0  0.4797323103182937 1.318677829548113 0  0.8975459458359925 1.296170152543854 0  0.464209749529605 0.8633392490855897 0  0.2934839260221656 0.8659218053661386 0  0.5291505402246311 0.1980703646347806 0  1.129554686622487 0.4893579115624633 0  0.6803878781969045 0.7035160631177291 0  1.32373046875 1.25048828125 0  1.32216796875 1.41767578125 0  0.5499851861317793 0.9439128053349233 0  1.022629866909724 1.040850270203209 0  0.5745442708333333 1.417645342938312 0  0.6210905905518814 0.07817000059074161 0  0.8251326424747147 1.051763251304391 0  0.9840195129520318 0.4094589843317338 0  1.335304710332526 0.8922471458140904 0  1.056578658899854 0.8909713350312058 0  0.6311277392046407 1.158870891931624 0  0.08048866130562571 1.097266504752301 0  0.7899471681381695 0.5900550615276262 0  0.787583911300231 0.6744258112570235 0  0.9253568605083915 0.6931779950154204 0  0.6069241236579608 1.236016193461046 0  0.9754544598564333 1.105608345312828 0  0.5891224709431884 0.6993621756793521 0  1.20518939408778 0.7458807514137317 0  0.7661039078070937 1.202429845202379 0  1.160750676252366 1.424456431149488 0  1.07906062607374 1.432028171475168 0  0.3800251736020173 0.4214243130004857 0  0.9386398271504294 0.6156244973145778 0  0.0625 0.234375 0  0.203125 0.2933407738095238 0  1.215434655272782 0.5908176357312523 0  0.3862873976850203 1.253958025454808 0  0.9642783311550196 0.7603191879845486 0  0.07907187269262334 0.5337704210040105 0  1.05323270401054 1.338218592033867 0  0.7809244217906405 0.07297738156489482 0  0.8538188665025647 0.1992768958275427 0  0.9002757663302332 0.06810835486946346 0  0.3896574912364178 0.6177519597715768 0  0.8312147565658268 0.4504658003252042 0  0.6060876899209792 0.4769383705177015 0  0.6973120163099531 0.973865749266754 0  0.2220506518942812 1.34123409472246 0  0.2016535060668421 1.419937676612376 0  1.067204461774397 0.7475876083618238 0  1.126113744622621 0.8622904019182541 0  0.3283697934586307 0.06033102762239553 0  0.3141768357227177 0.2102768223058998 0  0.8836591735735614 1.110539499889141 0  0.9335121559963067 0.9650712587476813 0  0.489881977219376 0.3554687673286838 0  0.1635028372004782 0.9601830799237989 0  0.190064339368102 1.055218085849877 0  0.4693032589410306 0.1089149617768512 0  0.826087350728517 1.388004148744978 0  1.071391321568866 0.357735705332231 0  1.056880377786583 0.2807740346831144 0  1.3359375 1.1015625 0  1.4296875 1.1484375 0  0.3906148988360577 0.9415494491776595 0  0.06145603826933142 1.359375 0  0.06985309644022948 1.2846420920388 0  1.438543961730669 0.140625 0  1.43014690355977 0.2153579079612006 0  0.161811455697184 1.281243264907209 0  1.2989767800824 0.08251937661177217 0  1.282654529021692 0.1634516867188552 0  1.343324227095839 0.2175851507697937 0  0.5747241214300347 1.087143402580354 0  0.1502172474800126 0.06370164366342397 0  0.07677312842259779 0.08704698619211086 0  0.06709364565267519 0.1592134266688963 0  0.1305803571428571 0
[...]
<PointData  Scalars="f_23826-0"> 
<DataArray  type="Float64"  Name="f_23826-0"  format="ascii">1.0725044387813678e-08  3.4318158842442700e-09  -1.2779795303307172e-14  2.4063643386032141e-08  -4.7142661021985115e-10  2.3998579083515358e-10  2.4730241915297603e-08  9.4296784425821387e-06  7.5995814206396240e-04  1.1239968003698996e-05  -1.1092521505283061e-10  5.0404854579215431e-09  1.0578876140802513e-06  -1.4906585503116520e-14  -1.1759285816440080e-11  6.2789006540686901e-08  5.4454648636430527e-07  6.6126043526321303e-10  3.1757777508744206e-06  4.8571961365328219e-05  3.1579460700475717e-05  2.6588188962794822e-04  9.1428664757970749e-05  8.9399112461169706e-04  7.2016560033830730e-06  5.6857349316793418e-06  1.8598128716040775e-07  -3.2917310098462552e-10  4.2211106305825425e-10  -1.3202123029066006e-12  2.0244215541686063e-07  1.5397683010699090e-05  9.5376284511908854e-05  1.4154075086319331e-05  3.1784018647763068e-05  3.1105405125888674e-04  -3.7749911773219549e-11  1.1236217989215559e-03  3.2767296376706685e-04  1.9883535325004587e-06  -7.7033501450975401e-10  1.1080228488018547e-07  5.8735283057834146e-10  1.2091494676634277e-05  7.4906102863830149e-08  2.0881095345948625e-07  1.1421169339587352e-05  1.5392916275875691e-03  6.5915838830218117e-05  -1.0357114128921206e-10  -8.1569522007086321e-10  7.8404583322333738e-09  -6.2552808050960273e-13  3.3254322804479000e-13  1.1264185183816601e-05  4.2850866134304362e-06  6.3867806983204511e-09  -1.6213143021877505e-14  1.4202493527292270e-07  2.8890236938025418e-07  8.2140056705430563e-09  5.4116463482898372e-08  3.2103973995219944e-06  6.5978042067354575e-05  1.5521601822612187e-06  1.8261885860412959e-05  7.7840382487967525e-08  -2.0189168818928477e-13  7.3712950268985738e-08  6.1050909595587407e-04  8.6640446575163483e-05  1.1429635700176584e-07  5.8309433141608767e-06  2.4866588698088009e-06  1.9157065770609722e-03  -4.4290625147715722e-08  4.5763619097396113e-04  1.1571283032497599e-06  8.2336017206124194e-07  4.8985764162932979e-06  -3.0442996221302296e-10  -6.6649754085339733e-06  2.5374681790298996e-07  7.2170875909089095e-06  9.1964979560909563e-07  -1.3564778464279874e-11  3.6891439104109781e-07  5.9403703514533157e-08  -9.8978902159867831e-14  -2.4836964481195100e-13  -2.6691436908373500e-12  5.4616992010058929e-07  1.9986450534376828e-06  -2.3380836529662728e-13  1.6334359377604369e-05  4.8896347124884098e-10  6.5689035473862360e-08  7.0378946057468296e-06  1.9762579536547678e-08  2.7817432265231694e-08  2.2271593166747067e-04  7.5302674394875480e-05  2.9536367931231249e-04  -1.1079705906400293e-10  1.1313093379102706e-03  3.7901163853422610e-04  1.1331863099285600e-05  2.7356846258869641e-06  4.8537764059202048e-07  4.1831556739925545e-06  1.0927334688913864e-05  1.1466541442735798e-05  8.2910100064963524e-04  7.7271120076808991e-04  3.1985259836433781e-05  4.5635805186331542e-04  4.8294044821302498e-08  2.0699880020100332e-05  8.3889130010258265e-05  1.5923042956182275e-05  2.6720551013056322e-08  4.0883729619673837e-07  1.0512766694846987e-03  7.2453086502803388e-07  5.2570736133045308e-08  3.1307237577586500e-07  2.3438330993691130e-05  1.3937989179647287e-03  8.8662559594414271e-08  2.4033000866264876e-06  -9.5439223478478922e-11  4.1556447132007785e-06  1.3478445019741260e-04  -1.4497945314376197e-11  -1.8310202364694507e-10  2.2273493992158318e-04  2.9332161313196026e-05  4.1932733769766155e-04  1.3315644392912294e-03  -7.7354879017259689e-10  -7.5760316394487187e-10  -8.2105198467262241e-10  -8.0772546212535632e-10  3.1422524867253648e-07  1.7866812408913997e-07  8.0588649976720049e-08  3.8543274140985225e-04  2.5275300729546851e-06  1.0065962177715871e-06  -6.5109712562182119e-13  4.9491228809420833e-06  9.4692626352109335e-04  -5.0849717436194687e-10  1.4944534613157136e-06  3.4205641772668899e-04  6.3774702434525675e-04  7.1085129868383072e-10  -6.5577043627276301e-12  -3.6719026551931175e-11  1.2658939137669492e-06  3.8746098451893196e-07  4.8688140098493752e-05  2.6900489051689970e-05  1.1868492298728138e-12  1.6156050914488997e-05  -8.5374731877897660e-14  -1.4086187959076362e-14  9.9693404947624669e-09  4.5041889234145928e-08  9.8436021872312481e-06  2.3699033236911661e-05  8.4460695598177685e-06  -8.5452653151569434e-11  3.7060946430655412e-05  4.8718663394703744e-05  7.0200005654385638e-09  4.8161422879206030e-08  4.6132459999555775e-06  6.2023902461421515e-04  2.3716475389923230e-07  3.5521678044887571e-05  1.5463906075435921e-04  8.4353460507234504e-04  2.3321510143054659e-07  2.6680414013496956e-09  5.6101428477605900e-09  6.8505153770128078e-09  1.6759586854326435e-09  8.7638283005716643e-09  -1.4541121973009023e-14  1.8871855403744068e-11  -2.6378749857074192e-12  -1.6513169493870151e-14  -2.6042566008566794e-10  2.3262810470782361e-10  1.2058078017188591e-05  7.0773776619099586e-06  2.3725516095036899e-06  3.7574389820074856e-07  2.8550564426528624e-08  8.6359228897256885e-08  9.9878451032704950e-06  9.4478355139540290e-07  4.6738176916883472e-06  1.9466862136723850e-07  3.1760651979028429e-06  2.1219313790481822e-06  6.4178856588377190e-07  -1.9076225588293135e-08  7.0812826141976876e-05  1.1380192560696792e-06  2.6252584248815123e-06  7.5178562658648889e-07  1.0264814955820922e-08  4.6884834534549112e-05  1.5968537385044766e-03  -3.0966520747551042e-12  7.1358487335743720e-10  4.2356382573223129e-06  9.6768058823528308e-08  2.1019982933801705e-08  7.2496129926884233e-12  8.7709258550262213e-08  7.6046953159887221e-12  2.8379410961146353e-05  9.7955548734184649e-08  1.0515315997163832e-05  8.1876539714682505e-05  8.5965645702495918e-06  1.1889299180963486e-08  3.7544906118133958e-09  9.8164673578412967e-04  1.6090930294177342e-06  4.4440164922474683e-07  9.1284669000718527e-05  1.1048998876612406e-04  2.3036201857687655e-08  -9.2713645561743376e-10  2.3681443211917000e-04  3.7910401161281502e-09  2.9631468418161512e-07  6.9029441586238420e-05  7.6514534500837087e-06  1.3034040603039633e-06  1.1994322021477973e-04  3.5432526667601835e-04  7.6930590608002253e-05  1.0873913123939290e-06  1.1779646126537588e-04  1.2110058743587978e-03  2.5046358185791753e-07  2.4301954367399951e-05  1.4530570657499402e-06  1.7089435998729616e-06  1.4042809048950078e-03  1.1468637990392847e-05  3.9410518305177362e-04  2.4610741089365210e-03  1.4843512915969239e-08  2.2514035226949401e-07  8.8623428697380216e-05  1.1511772621248089e-05  7.4007513949755744e-06  -4.5271684356601744e-10  -3.8483085833086420e-10  -1.5899051482874785e-10  7.2343504063761353e-04  1.6138189307739729e-06  2.7747653772334022e-04  3.2897654538698539e-04  7.1149405464622808e-08  2.2955158830652584e-08  1.4356600294274370e-05  2.0888388515986531e-05  3.0830033543482424e-10  3.6637483290944992e-05  1.3985387938943709e-04  2.7525825859462256e-04  1.4984557398240006e-04  4.0293069981496105e-06  1.9538779386481554e-06  -6.3559608056550003e-10  9.2193698228479431e-07  -3.4945215879652133e-11  -3.9714097193620677e-11  1.6444239616985429e-06  2.9517369392552216e-07  9.1950771679947531e-06  6.9863402084864956e-08  1.8707906385474999e-07  -5.0394060860104544e-14  -6.5378228336729643e-14  1.7128701919764916e-07  -7.6362827076576358e-13  -8.4869291876092799e-13  -2.8472111589449787e-13  1.3457342611779232e-05  3.4909656803722507e-08  -1.1001165740758883e-06  4.9058177062203858e-05  2.7704691528624022e-03  -1.0561842319729476e-13  2.1830492985419783e-08  4.7878303455428295e-07  2.8293725648516985e-07  -4.0427758810197116e-11  5.0301451282945114e-10  4.3851502668608120e-09  5.4436431757555977e-06  4.5400063021107989e-07  1.6036853698863800e-04  5.2881474756168124e-04  8.8490739983823705e-04  4.2071600525415739e-06  -7.0770912833950854e-14  -7.1955291983272931e-12  7.1023761390184695e-07  -4.9646354051471699e-14  2.0304351023418743e-07  1.1953230849710709e-06  8.7420521097453754e-07  5.3810194279507937e-07  1.3454521610600750e-06  3.9104511773957175e-04  -9.3634362927203113e-11  2.3325125018972695e-04  6.1489546081821898e-08  2.2070976219765430e-07  -1.6687885040528842e-11  7.1031180640039159e-04  4.7311941639447167e-04  -7.6210726754972186e-13  -6.8518222006965137e-10  1.0531389220553818e-09  1.0835703381510814e-05  1.3370467019207004e-11  1.2247221386541083e-05  -1.8844999379226428e-10  5.8797530365953574e-05  7.3674322186023367e-06  1.2385538573237303e-05  -4.5135308330154408e-12  3.6558133063789510e-08  8.4309085756456842e-06  6.4775130284046154e-06  1.8984265544428880e-08  1.3507061761417325e-08  1.2931478872875517e-03  -6.3223480766589589e-11  9.3459801198314725e-06  -2.0750367358772315e-11  5.2292789600392490e-08  3.5814811911806429e-05  1.0441651493208098e-08  1.4414986111199504e-04  1.0675721449032946e-03  2.0834820152239209e-03  3.1957808315189661e-06  1.0413407014190534e-05  2.1057932454703278e-09  2.4936420902748530e-10  1.2513202479970296e-07  2.4653096413689055e-08  6.7323977922736805e-08  1.0650747970630289e-05  5.7899145557709541e-07  1.3055350214527969e-08  5.3956769555552509e-07  2.0426050670924200e-05  6.1191014479844528e-08  4.8849631341616852e-06  4.9298255837965620e-04  2.5513123391650294e-04  5.7789703454160968e-06  2.1331347371695744e-06  3.5263211371694074e-06  8.3943517082632859e-04  1.0138861043571122e-03  4.6706785118448430e-06  1.7541516133352735e-04  3.7912307133472184e-07  1.0458340743324079e-03  7.4890221388286982e-04  3.0691251668603251e-04  1.1276783162213172e-03  1.1759228381085161e-10  6.6672604964284537e-11  3.1575008236847722e-05  1.0246066768938076e-07  3.1110748804334307e-06  1.0328867742022293e-05  1.7668450807741073e-05  1.2108460746504894e-03  2.6671978648713525e-06  4.6381293563789159e-07  6.5531367219073339e-05  1.1213436858403460e-05  8.4872031127239450e-08  6.0053419209410124e-09  7.5094270701139127e-05  6.1461470544820837e-08  9.6426468111451813e-07  1.5285869109197080e-06  3.4157441054691956e-08  1.2472057846513384e-03  -2.6108419966195113e-14  -4.5035022260592426e-13  7.7919210613570929e-06  4.8269862364732112e-06  2.3757966453073787e-06  4.3142437267615195e-04  3.0352870470723476e-05  1.8097559104379129e-03  1.9563661099327652e-04  5.9555207300415760e-09  1.0100707437927818e-03  8.2443071606033355e-04  6.8182685542143783e-05  6.6757818458711339e-05  3.7227990737227231e-05  3.5412497453973798e-05  5.9302963143151257e-06  1.7405292768708497e-05  1.4791427271303214e-05  3.7408466586354119e-05  8.4773630921281131e-05  3.9569718689340807e-05  1.5694057359266943e-05  -3.3350496020063938e-10  6.7917278878166522e-06  6.0394986247429026e-08  9.8975924680024845e-09  -2.5683911257817563e-12  4.3109197950013436e-04  -6.6856108554457672e-10  -2.7147646335597481e-10  2.7241145686400497e-05  1.2588861036009466e-04  9.4700454140436101e-06  -4.3634478798687405e-10  -2.0560048330694848e-13  2.9589297045966557e-05  -6.9195963191973078e-11  2.1150913705012158e-06  6.8396308134180514e-04  -1.7825444965605422e-11  9.8087031035454085e-05  1.7709118386001567e-07  1.4500471322599123e-03  1.8351982370816108e-04  -7.8738950432753874e-10  -2.4364565869641437e-13  4.9834233518253677e-07  1.0918109946612320e-05  3.9858260935880074e-06  4.0458811232734645e-07  2.3076925102648940e-09  1.2401610363956955e-11  6.2644170504950342e-09  7.8072127111603141e-07  8.6174949729213269e-04  1.1615158894586092e-05  1.2994360246370472e-09  9.5361432587170939e-06  -1.2526541045258317e-12  -1.6912262736595350e-12  8.9567278204053441e-06  1.2990730585679059e-04  4.3624709766558630e-04  1.3873358505830732e-04  -2.1257194198438101e-10  1.3543947138475576e-07  2.3562547920660045e-04  -5.9913026910085929e-12  3.5764923185078905e-07  2.1133879513180112e-05  -8.8526000350924054e-10  -6.1288361710843347e-10  -5.3463142292251871e-10  1.9529470341395755e-09  6.7145779363785368e-09  1.0173429551867479e-06  2.7680856309089972e-06  4.0380424428943597e-08  5.5645895837412396e-05  4.4755017196627241e-07  -3.5543752238515625e-10  4.2492566028596630e-04  5.4511092710071859e-04  1.8648017151714902e-04  3.7371643391801850e-04  3.8888535367257208e-04  6.0434239115000812e-04  3.7294046705299466e-06  2.4734260165356494e-14  5.5937537263045972e-08  8.1678430018178679e-07  9.7285608742615592e-06  8.8666491717063195e-07  3.4569626890480282e-06  -6.5148736360710129e-12  9.7044092961756692e-06  3.6534063099688082e-10  -1.6408988490702737e-14  -4.1018229369510143e-14  1.7569610121479579e-08  -8.4520622173568066e-10  1.1911179053366263e-06  1.6479555248957909e-06  1.9128147971879591e-07  9.6361234605808960e-07  1.3637227254392405e-09  3.9856806126860675e-04  3.0650898485599297e-04  2.4174870885749510e-07  2.5166012982841272e-05  7.2858870180849184e-05  1.8646912791213710e-07  1.7767379954954577e-06  1.3875440374966671e-08  1.2726309865907358e-08  -8.3268938475395864e-10  2.0222958957621058e-05  -1.7054863107696959e-09  1.1642471820441269e-13  1.8498131833752065e-06  3.6364266101955657e-07  2.9805737768574097e-05  3.8320490293070952e-07  3.9391968733310301e-06  -1.5684979652075553e-12  -5.7305177708834344e-10  -9.4746063928869076e-10  4.5098961967305701e-06  7.7809715680526143e-04  2.7426272721948715e-04  2.8319022920838378e-06  -1.4415863429635135e-14  1.1551951497445956e-09  1.1735323890394262e-08  4.8830108137285213e-11  4.2705928563959934e-05  1.5524395095857558e-07  6.9640528633712041e-07  1.2412251935225790e-07  -1.1886880307948011e-14  1.0952191091584705e-09  1.2467320496814696e-03  -1.2411752786358098e-12  1.2803334401907219e-05  2.0704687168295614e-05  2.3649983539748694e-06  6.0702283341740386e-06  1.1622443897726430e-06  3.7806037027953766e-05  1.6467535939125152e-07  7.6486005164344552e-07  1.1317665240283447e-06  -1.4480088099243030e-13  1.2060879043737224e-07  8.4999478216071295e-08  1.1331746480279312e-05  2.8673373203972824e-07  2.1496555445035553e-05  -2.8555262591417890e-13  4.3535864313582533e-05  2.9948948762927759e-03  2.9569495521616823e-05  -3.4805372915171337e-14  5.1450268160148995e-07  8.2363489732825172e-05  1.1308600013283224e-05  1.4968579327618978e-07  -3.7938804137480326e-14  3.9915592682987329e-08  1.4994928061319192e-10  6.6701329463008513e-04  1.1344279637147685e-07  1.2201123697493599e-08  2.0667865155853231e-07  9.0913505539164973e-07  2.1430261058962466e-04  3.8040078708406902e-06  2.0138274106753776e-07  3.6405486633735778e-05  7.8853376728355004e-09  3.9560192275689383e-13  7.4441660392362391e-05  5.2317764298820305e-05  1.4363784408589818e-05  -8.8582221115921708e-10  7.8567747399705399e-08  5.4252321498030357e-04  1.4941471619964522e-05  1.5545101185965434e-04  1.0087208586017458e-05  1.8245648774911570e-07  7.9656463572231445e-08  3.2590544452203300e-08  2.9154802754567155e-06  2.0194427335294434e-07  8.5003080469278182e-06  -1.2142524720660259e-10  -2.1699885891672529e-09  5.3550783211615928e-09  6.4361521484711674e-11  3.5478746913103895e-12  7.3675811205844592e-06  3.8540911347226134e-04  7.3809265100888301e-05  2.3970358738655277e-09  -8.9405229014954887e-10  2.1630318392209747e-06  4.5646034976881260e-04  1.1555725206736610e-06  4.2506839228150692e-07  -2.3717010843826870e-13  7.9172114601328637e-07  1.3506652427899231e-05  3.9494543907019579e-04  2.1714141673921046e-06  4.7400591969871709e-05  7.7594701575056533e-06  5.7433034010256410e-06  -3.5174330246069196e-10  3.7763040464249753e-07  2.5003291021474884e-07  -1.6518992597805427e-14  2.7407833888151896e-06  1.2552438313457774e-03  7.3810856817298936e-04  6.6565969385342380e-04  1.5632506259635303e-04  7.6986819872447735e-06  4.2480123503542093e-07  5.2558197230874852e-06  5.1845167727720819e-07  -1.5132120625302097e-06  -5.1748539608780303e-09  -4.5671718927923974e-13  -2.7072010147790031e-12  -8.9221456940321075e-10  1.5512441072076414e-08  1.9091956765539056e-03  9.3412508863623600e-04  6.3180040045382761e-04  1.4937705560937056e-09  1.4252339993639818e-07  9.1699030781322824e-06  -3.6932823802212899e-11  2.4612563066885452e-04  9.1277668512651961e-06  6.7524368131693177e-09  8.3283253606130440e-10  2.0426076444523985e-07  5.9104914284507076e-08  9.6541477119011308e-06  3.6396351049768994e-07  2.2829801050405865e-08  -6.0946810994207753e-10  1.3243852092090189e-07  3.0965011154111191e-07  2.0395018724674132e-08  1.0353977372316039e-08  5.2378678685580585e-08  3.2145548515450118e-06  5.1000791083466070e-09  1.6288226537079060e-08  -2.2437084451719916e-11  -6.5921345262456600e-11  8.6737944452621474e-11  6.1968460989095519e-10  3.4988126561604940e-09  1.1120536487374457e-05  1.0369775971013531e-05  8.3652233477410184e-06  1.1377326295731135e-05  -6.6075964129916868e-10  6.6083290445713544e-07  -6.1058788158307865e-12  9.0761401461172147e-09  -1.0981262418393434e-09  -1.6890071162094032e-14  8.8438742303663448e-08  5.0725149726942258e-11  -1.6192569027476834e-10  -4.4218531810461724e-08  1.0208142112989516e-05  4.9853510285836946e-07  1.6262411184148313e-08  6.2838429686117748e-08  3.6162922769606049e-08  4.0833224027869433e-08  5.6426401447645581e-06  1.4225640764228033e-07  1.1771019562920014e-05  5.4609118954324676e-09  5.1924387032914969e-08  8.4043034880169046e-08  9.2701039100340346e-07  2.5008924784936554e-10  -2.1923660033785169e-07  1.1798767520819109e-08  3.4566190908504372e-05  1.7435522572896438e-03  9.0686449284982211e-04  1.0291205028874349e-03  9.7272951898289402e-07  3.8262825166592145e-10  1.6086344810745723e-05  3.5838724832452769e-07  2.4194409233011433e-05  5.8434549563825122e-06  4.4622109980192434e-06  3.5072554009052540e-06  8.6984554228093164e-06  -2.0626257664079874e-08  3.3273033476109246e-05  3.6275407050281519e-04  1.7717185573584082e-09  1.2408114739977799e-04  2.9231039300096509e-08  1.6604648437101308e-03  4.5370157379985858e-04  7.0851665943750010e-09  9.5001587101854058e-06  4.9669942955854397e-06  9.5633502388721910e-08  1.1223067474223176e-03  4.2720554248195724e-05  6.5067841340066513e-06  7.5174905182659456e-06  -5.0033045079858374e-10  2.1631088738740094e-04  1.0013365098157589e-03  1.1705017144846613e-03  -5.6500370811458623e-14  -8.2288040588611462e-12  1.6199729271807076e-10  -7.1327607759875336e-10  7.7781211750873691e-04  6.6182076261791698e-11  -2.3195447533394191e-13  3.2788288298337838e-06  2.1057311784583718e-05  4.5032832448835382e-07  3.0891419189468225e-04  6.8641586492760945e-07  7.3793781471429468e-05  1.6000731295568531e-05  6.7463805408839581e-06  1.9366866365223722e-06  2.6404030192997631e-06  5.2184941188424693e-07  7.1937129363733295e-06  3.6546325516894680e-06  1.6100673403757446e-06  2.2248044175384661e-06  7.6397026255024502e-07  1.0344419296555122e-06  7.5262938791723711e-08  3.2825720182351752e-04  1.2515504310965130e-04  1.1585063854357423e-03  1.5011231326664262e-10  -2.1712681478199499e-11  2.2074276841983518e-04  1.1132439116050123e-06  2.6734738996753617e-07  2.2537131094653821e-06  3.3701726072819991e-06  4.0239011436928189e-06  -6.2768518885141983e-13  4.9184627215520489e-08  7.2167065396179767e-08  1.6695272066745970e-07  9.2757612425656805e-08  3.5221725674379817e-06  2.2313206857138012e-04  1.3730538166193266e-05  3.7825416732690201e-07  2.6635192373865137e-05  1.7701787426928875e-06  1.7626406013696408e-06  1.2857406137145587e-13  1.0269292322135280e-05  1.2995422542660950e-04  -3.5912004083806722e-12  -4.5136915103212645e-10  3.0451520936200978e-06  7.9135814565859243e-04  -9.2599311478769856e-12  1.6413167422672247e-04  5.1134747759516999e-06  5.4618474695068561e-06  1.8652374028698196e-07  1.0995775350504874e-12  6.1374304871263352e-08  1.3998127135636006e-08  7.6379222733317929e-06  5.2952209794727889e-06  1.5096006327505981e-04  1.1495080464367847e-05  3.2180508609774611e-05  6.8969960387827583e-05  4.9293495006368343e-04  -1.3636574615020247e-13  1.1172132144707436e-05  1.0038354106436498e-08  4.2186451676796106e-08  -2.3204476171953915e-08  -6.7067375326319560e-12  1.2165948702237412e-08  1.0996843580172252e-11  -1.5225716056658172e-13  1.2116848602877713e-03  8.3702142733076531e-07  -9.7583988112961816e-11  3.5460185583815939e-07  3.6977288280811252e-09  -1.5822760799774369e-12  5.4598394632706363e-05  4.7084871888050091e-08  9.211070