<?xml version="1.0"?>
<VTKFile type="UnstructuredGrid"  version="0.1"  >
<UnstructuredGrid>
<Piece  NumberOfPoints="6486" NumberOfCells="12696">
<Points>
<DataArray  type="Float64"  NumberOfComponents="3"  format="ascii">0 2.5 0  0 0 0  2.5 0 0  2.5 2.5 0  1.25 0 0  2.5 1.25 0  1.25 2.5 0  0 1.25 0  1.25 1.25 0  0 0.625 0  0.625 0 0  0.625 2.5 0  0 1.875 0  2.5 0.625 0  1.875 0 0  2.5 1.875 0  1.875 2.5 0  1.770833333333333 0.7291666666666666 0  0.7291666666666666 1.770833333333333 0  0.9375 0.625 0  1.875 1.5625 0  0.642361111111111 1.163194444444444 0  1.341594827586207 1.883979885057471 0  0.46875 0.46875 0  2.03125 2.03125 0  0.3626104797979798 1.513178661616162 0  1.381740196078431 0.4564950980392157 0  0.9375 2.172619047619047 0  2.172619047619047 0.9375 0  2.096354166666667 0.4036458333333332 0  0.4036458333333333 2.096354166666667 0  1.684027777777778 1.163194444444444 0  0.3418803418803419 0.8693910256410255 0  1.642742622813391 2.162164207604464 0  1.275619849389031 0.8465650753054845 0  0.9136284722222221 1.434461805555556 0  1.732437511238546 0.3406962303960658 0  0.9714402568595876 1.029779313093998 0  1.52281746031746 1.485615079365079 0  2.1875 1.71875 0  1.06819722569879 0.2997236128493951 0  2.136114211309524 1.303478422619048 0  0.3125 0 0  0 0.3125 0  2.5 2.1875 0  2.1875 2.5 0  0.3200021620376328 1.192323085056694 0  0.6738456129277992 0.8304377375553881 0  1.757891808928991 1.861952730357003 0  1.5625 0 0  0.9375 0 0  0.3125 2.5 0  2.1875 0 0  2.5 0.9375 0  0 0.9375 0  0 1.5625 0  0.9375 2.5 0  2.5 0.3125 0  0 2.1875 0  1.5625 2.5 0  2.5 1.5625 0  0.7448220909826522 0.3003573636608841 0  1.027298850574712 1.871151477832512 0  1.331260495098891 2.197262878816185 0  1.207917681892289 1.582765010956622 0  0.4339993447432606 1.801186844743261 0  0.6337298768939392 1.443093039772727 0  2.049851190476191 0.6826636904761904 0  0.6584821428571428 2.219122023809524 0  1.89575676467455 0.9798457973793544 0  1.437570562095628 1.059380588255917 0  1.502090052505845 0.6987070896496241 0  0.2040860661083546 1.705323965099331 0  0.2083333333333333 0.46875 0  0.5070952039991439 0.2211150679997147 0  0.6916302856529919 0.5813591430410241 0  2.265625 1.953125 0  2.2265625 2.2265625 0  1.886424081252096 2.243391360417365 0  1.40625 0.202164758520858 0  0.2269345238095238 0.2269345238095238 0  1.152730869673694 0.5225850378741401 0  1.885631899587912 1.312095130148776 0  1.614808884009367 0.9049784971014416 0  1.890095442220658 0.5126535558463003 0  2.323168682795699 0.46875 0  2.268811725689575 0.2304742875213018 0  0.6002389442105756 1.967426444210576 0  0.1768313172043011 2.03125 0  0.2311882743104251 2.269525712478698 0  2.03125 0.176831317204301 0  2.280262553344767 0.6954945504579233 0  1.979219539285994 1.809922269642997 0  2.336309523809524 1.09375 0  1.09375 2.336309523809524 0  0.9314042474388009 1.662973812215543 0  0.1634067999087722 1.40625 0  2.337090640094896 1.40625 0  1.141616997467638 2.069311773587991 0  0.46875 2.338939559681489 0  1.542440307908715 1.734944797244472 0  1.556713687786879 1.956977865354753 0  0.8264238995344066 1.975424467820646 0  1.466326331454725 1.275271369760862 0  1.655675324257095 0.5444159974393489 0  0.3385416666666666 0.6479255698005697 0  0 0.78125 0  0.5236073939200119 0.984090461540625 0  2.091665741047893 1.519793517904215 0  1.71875 2.5 0  0.5356538886262603 1.623137930505009 0  0 1.09375 0  0.1932884281517095 1.015625 0  0.8569313582417669 1.2198915584249 0  0.8876981284879677 0.8329884081524883 0  1.115618488474214 0.7219586973356271 0  1.186950366204949 1.043465130075318 0  2.057459118787237 1.110823087309335 0  1.830651283878689 2.049810069572418 0  1.689107969301489 1.367247437031697 0  0.4921048768039656 1.298643370653124 0  0.8213975694444444 2.336309523809524 0  2.03125 2.5 0  1.049729400480002 1.283723261332814 0  1.308101375801673 0.6489479469700392 0  2.5 2.34375 0  0.4968777175037714 0.7562964879736076 0  1.40625 2.5 0  1.501347663534097 2.307027627307738 0  1.602813712048603 0.1926218191360736 0  0.8393082906308107 0.463778306132633 0  1.682663349152719 1.598471865581041 0  0.7774174680851571 1.560004941327907 0  1.554204170364662 0.3898593897892066 0  1.842184459051087 0.186443880058197 0  1.358107417651776 1.696381759610015 0  1.18859291992392 1.77598670078022 0  0.1875331222687418 0.7609599743339348 0  1.339536743965101 1.422080365801479 0  0.7788179348750389 0.9955343414928611 0  0.9062978492805438 0.1919636509126373 0  1.256007360640958 0.3160320559396114 0  1.09375 0 0  1.174986727221844 0.1594990293443933 0  2.34375 1.796875 0  2.318026474511116 1.589177949022232 0  2.34375 2.5 0  1.672742954892153 2.332882724550692 0  0.2683637361947215 1.874801596909639 0  2.174770749820102 0.5581009131310781 0  1.443279522965991 0.8870068372898454 0  0.3385416666666667 0.3571428571428572 0  0.78125 0 0  2.060421048269335 2.314363248763811 0  1.088078737088509 0.8967352118723447 0  1.087825368444708 1.454931510884769 0  2.018308232129541 0.8548495425854904 0  1.943987311736842 0.3246298523011434 0  1.71875 0 0  1.85337849796276 1.144833312386208 0  2.3486328125 2.1044921875 0  1.407588788651747 2.042968789119587 0  2.336309523809524 0.865366648092144 0  2.34375 0 0  2.5 0.15625 0  0.15625 2.5 0  0 2.34375 0  0.1638044648294291 1.242263417405867 0  0.356216654757926 1.032569427322806 0  0.3188217956111817 1.355736727000647 0  0.5924956460852111 0.36112522004736 0  0.6594216488965849 0.1603472116132387 0  1.841804599497131 1.72214349266521 0  0.15625 0 0  0 0.15625 0  2.115898634821499 1.894570904464496 0  0.7821877980253907 0.7129993435924866 0  1.003820447087786 0.4516053462784233 0  0.477562948779147 1.138333049293613 0  0.719493678605015 1.305655360135975 0  0.9772457618587566 2.020350128938537 0  0.8764738248887107 1.826219722709673 0  1.254787875123819 2.339010653832026 0  2.343597354852534 1.249982759769001 0  0.78125 2.5 0  0.46875 2.5 0  2.5 1.40625 0  1.09375 2.5 0  2.5 0.78125 0  2.5 1.09375 0  2.03125 0 0  2.5 0.46875 0  1.40625 0 0  0.46875 0 0  0 0.46875 0  0 1.40625 0  0 1.71875 0  0 2.03125 0  2.5 1.71875 0  2.5 2.03125 0  2.005424054645407 1.653223486966518 0  0.1538730573856537 1.559850281736677 0  2.33984375 2.33984375 0  1.166539506212474 1.922878979538754 0  0.3914885633949916 1.65887232812171 0  0.5795503163042564 1.766243562569382 0  0.399533125920212 1.946786875081388 0  0.7866324979014098 2.127719094551316 0  0.3654683023546834 0.1495701132219454 0  0.1527388747131078 0.6116379440619215 0  2.013737577140188 1.391056634712135 0  1.17635437372994 2.213329084238133 0  1.737118141866284 1.010577140843115 0  2.200707118087222 1.164723314085963 0  1.697018908736685 1.993548551451517 0  0.5387621649009668 0.6070503962352419 0  2.032805785855952 0.5330427622570983 0  1.082699501358059 1.667818725183932 0  1.503819781540653 0.5468420196858188 0  2.015409142866072 2.175941657590429 0  1.752057611265444 0.869642097111018 0  0.612251684107783 2.356045720700959 0  1.902817102342857 0.6607642211999982 0  2.159616561739693 0.7867739969338844 0  0.5120038350106624 2.197302352398502 0  1.888200216011548 1.919501662489862 0  1.495909909726654 2.16028358757309 0  0.489139876703609 1.443203008943564 0  0.8819175670410521 0.3301172743913011 0  1.882591144370812 0.8155965192707721 0  1.133979796994841 1.172526771862882 0  2.206217447916667 2.084147135416667 0  2.20361328125 2.36279296875 0  1.395746985657004 1.556054166359645 0  1.704383111516207 1.734750450338683 0  0.9575737847222222 2.36274223823052 0  1.035150984253136 0.1302833343179028 0  1.383966125325753 0.7651479963479179 0  1.64003252158672 0.6824316405528895 0  2.22550785055421 1.487078576356817 0  1.760964431499756 1.48495222505201 0  1.276460980673788 2.004207003584658 0  0.1341477688427096 1.828777507920502 0  1.542261434180652 1.155296658359034 0  1.334627911613854 0.9696897472490321 0  1.30794231473696 1.119420615785191 0  0.7028260459857245 0.4438906910721139 0  1.625757433094055 1.84268057552138 0  0.9818707849053143 1.165603626132254 0  2.0086489901463 1.243134585689553 0  1.934584460420609 2.374094051915812 0  1.798434376789567 2.38671361912528 0  1.206314791201715 1.382064292497919 0  0.6333752893366955 0.7023738550008095 0  0.7796219811205605 1.42573253164258 0  1.564399711917382 1.026040828857629 0  0.3385416666666666 0.4889012896825397 0  0.1041666666666667 0.390625 0  0.989112246382566 1.543537365516289 0  2.025724425454636 0.9846960595520872 0  0.6602885475034063 2.086117390485779 0  1.607130551925032 1.267198646640915 0  0.1317864544877056 0.8896173683400176 0  1.755387840017567 2.230364320056445 0  1.301540702984401 0.1216289692748247 0  1.433170657577442 0.3331052752740999 0  1.500459610550388 0.113513924782439 0  0.6494291520606965 1.029586599619295 0  1.010146149868299 0.794897284196169 0  0.3700844198238017 2.235390157870766 0  0.3360891767780704 2.36656279435396 0  1.876856241037701 1.437150669863757 0  1.778674102957329 1.245979347269706 0  0.5472829890977179 0.1005517127039925 0  0.4669074189005698 0.3416784232954367 0  1.472765289289269 1.850899166481903 0  1.555853593327178 1.608452097912802 0  0.6708955559113426 1.646561631116984 0  0.8164699620322933 0.5924479455478063 0  0.3167738989468366 1.758696809749795 0  0.2788007305565096 1.605499483471246 0  0.7821720982350511 0.181524936294752 0  1.376812251214195 2.313340247908297 0  1.785652202614777 0.5962261755537186 0  1.761467296310972 0.4679567244718574 0  2.2265625 1.8359375 0  2.3828125 1.9140625 0  0.5279531607054191 2.071552361614785 0  2.397573269551114 0.234375 0  2.383578172599618 0.3589298466020009 0  0.1024267304488855 2.265625 0  0.1164218274003825 2.141070153397999 0  0.2696857594953064 2.135405441512016 0  2.164961300137334 0.1375322943529536 0  2.137757548369486 0.2724194778647587 0  2.238873711826398 0.3626419179496562 0  0.1001414910226386 0.234375 0  0.2176339285714286 0.3478422619047619 0  0.2503620791333544 0.1061694061057066 0  2.336445461915368 0.1250451055247424 0  0.2154004640409726 2.3918124
[...]
<PointData  Scalars="f_124-0"> 
<DataArray  type="Float64"  Name="f_124-0"  format="ascii">1.3433395335533563e-02  2.2283505011764068e-01  7.9132074449251664e-03  3.3323464471868187e-03  1.1147231495651623e-01  6.1847255342251410e-03  1.4406717347717257e-02  1.4090516028827327e-01  1.1659688934509665e-01  2.1091664003899394e-01  1.8440027751270935e-01  1.4525144806704603e-02  6.7769521656160334e-02  5.8025956010438091e-03  4.5233113799382170e-02  6.9045090103154816e-03  1.1301220556820545e-02  5.5582444332848480e-02  8.1450390877886567e-02  1.5448590839639795e-01  4.9620471439562532e-02  1.4839329730546488e-01  6.4851711475749932e-02  2.1175673202743234e-01  2.7176738294871182e-02  1.1140869490337241e-01  9.9378653780573617e-02  3.8181451834031419e-02  2.0146748730189037e-02  2.5014748770542040e-02  4.4610431273685199e-02  6.8950076610191494e-02  1.8259136544032456e-01  3.3853195676639143e-02  1.1530904758081192e-01  1.1806940131077030e-01  5.7094353089947238e-02  1.4792939405064434e-01  8.4716359642457453e-02  2.1744982622467868e-02  1.3523392872602269e-01  2.4447823441484034e-02  2.1832531473632505e-01  2.3590504807318136e-01  5.9447681113921980e-03  7.0919136761599111e-03  1.4537089446853077e-01  1.7891219282920137e-01  5.0630573236080188e-02  7.5369806429934280e-02  1.4850152036743003e-01  1.3143083934797208e-02  2.0735981731161011e-02  5.6462359107927714e-03  1.7213408320846299e-01  1.0633167058475224e-01  1.4264833245332042e-02  6.6189239516115956e-03  3.4700188327016324e-02  1.3161196259423254e-02  6.7029445547981863e-03  1.7322059971645565e-01  6.8173257128476786e-02  3.3750854906045097e-02  9.6974495398259336e-02  7.9204602974531968e-02  1.1772998877094511e-01  2.8143632211774947e-02  3.3034901498562197e-02  4.3298831769818920e-02  9.8754628793614865e-02  8.6105496160564302e-02  9.0132259760670574e-02  2.2921558495778224e-01  2.0092126583501441e-01  1.8548415508056321e-01  1.5389858312864081e-02  1.2591999027213422e-02  2.2345545649171572e-02  9.3650561972334456e-02  2.3355650096664962e-01  1.2688004412507711e-01  4.7518065654263870e-02  7.5259192887225379e-02  4.1690790519536398e-02  1.1421338019506537e-02  1.5000249821149491e-02  5.9842859053896032e-02  5.0569408597165057e-02  2.7524215447044725e-02  3.0852051186313453e-02  1.3263166992819347e-02  3.6609232095404856e-02  1.0994142815940782e-02  2.3707119234355804e-02  9.1507302937461302e-02  1.2405405532043805e-01  1.2043432903949625e-02  4.7127276965657813e-02  2.3033958016789712e-02  7.1184181974151453e-02  5.2725947638801625e-02  5.9229859312476173e-02  9.4656913536062079e-02  6.8283779645137141e-02  2.0773365376298611e-01  1.8946230481843004e-01  1.6847079230633841e-01  2.8876806090573356e-02  1.2706427392965368e-02  9.8286466425656735e-02  1.5627151540404091e-01  1.6387371317940289e-01  1.3999329536358543e-01  1.6113045495611958e-01  1.3344225236415969e-01  1.2679439140991469e-01  2.8922133513884059e-02  3.5496890418182936e-02  6.9493340957756708e-02  1.3340442405212538e-01  2.3810416274254575e-02  9.6013892691811983e-03  1.2576395449257302e-01  1.0894506778858852e-01  4.6778779031888887e-03  1.9289597257927354e-01  1.3766235342911017e-02  2.3983403336249265e-02  7.1180465808764554e-02  1.6426086350221741e-01  6.6841186965678256e-02  1.0326684736895216e-01  7.8451488017802315e-02  4.5873604331114315e-02  8.2868213524687998e-02  7.7746657427521251e-02  1.9435774955403731e-01  1.0214056129909105e-01  1.6193154530637230e-01  1.5281459843947151e-01  1.1315974494691602e-01  1.2975497578233469e-01  1.2280805039687669e-01  1.2355460435407587e-02  1.3685774333219110e-02  5.0018730193636882e-03  2.1138600453942724e-02  7.0197622778669463e-02  1.8862765295093918e-02  9.5333549701538040e-02  2.2855256215278377e-01  1.6569352836462911e-01  1.4622551808157674e-02  1.3864997545355345e-01  1.1167537907611197e-01  3.1665459094166161e-02  3.7028114369520145e-02  6.0079537800756033e-02  4.9170199813180528e-02  1.0510794121187834e-02  4.7143930288226499e-02  1.0539839329047271e-02  1.3239099539031976e-02  7.4553714601174282e-03  1.3351294458605919e-02  2.0748775816234293e-02  1.4044909919553417e-01  1.6386276021478680e-01  1.2828836497063059e-01  1.9311189029710180e-01  1.8157806758991427e-01  4.9525139121283299e-02  2.2880395862354386e-01  2.2931191922119512e-01  2.4926787565045388e-02  1.7324021102062584e-01  1.4344927843565491e-01  1.5225110173656670e-01  1.3256449333350603e-01  5.3791141733976824e-02  7.4553359355753274e-02  2.3496379009665329e-02  1.1320458248185311e-02  1.4311993500052691e-02  1.3417560187829559e-02  6.4960210888029097e-03  1.4356150933542099e-02  5.8732659956447549e-03  5.9727203404072605e-03  3.2246681017265050e-02  6.0189587303534596e-03  9.1491474825993804e-02  2.0410445825333262e-01  2.2890412663290188e-01  1.2464135021923559e-01  8.8007879279778475e-02  5.1498704469983420e-02  7.0122228627410065e-03  6.5276098342614075e-03  3.6113998342733981e-02  1.0649736522240212e-01  7.3472753730851794e-03  6.2070163640622296e-02  9.6310149018180205e-02  8.2248023246515048e-02  6.2054259534568897e-02  4.2824093390385641e-02  2.1707065587172625e-01  2.1251985189601377e-01  3.5557203656472365e-02  3.4131010814733118e-02  6.1117044123860501e-02  1.8737524235764701e-02  4.5601606995204241e-02  2.0054922151160387e-01  2.9703425973561421e-02  9.0546350178216287e-02  8.4894286311272840e-02  2.1484917114658282e-02  5.8885181094028717e-02  2.1878470362723827e-02  4.1324024859020043e-02  2.0406428968985438e-02  3.5143185003131988e-02  3.9603817040808738e-02  3.5509714957171840e-02  1.1809408743523274e-01  1.5617535486197467e-01  4.2903539613836306e-02  1.2854714515153659e-01  1.6450086795269072e-02  9.4612005117607461e-03  9.0576524623515592e-02  5.9771404893999125e-02  2.1656473215212694e-02  1.3882711223997396e-01  1.0158060891757104e-01  6.9393968006073087e-02  1.9209337199884425e-02  6.1962027196934943e-02  5.2987753533305600e-02  7.5784392982990639e-02  8.6043255134055446e-02  1.0991024015348988e-01  1.1280977957235513e-01  1.8117567750249819e-01  5.9673466167235990e-02  1.3851687102149710e-01  3.5194932202560480e-02  1.5060962075413055e-02  1.6355321866786857e-02  1.1243049199674901e-01  1.8893290249555475e-01  1.1898325500835134e-01  8.3047707932435738e-02  2.2221972442262902e-01  2.3718073014932772e-01  1.0489098811657271e-01  3.0660742987153249e-02  4.6262773671283917e-02  7.9072055207065964e-02  1.7815123852833900e-01  2.6742328802368213e-02  1.0586087566157723e-01  9.2304283364609468e-02  8.2041609539006147e-02  1.6194599642467356e-01  1.4684904268700855e-01  3.1319322611349572e-02  2.0202249421837789e-02  4.9102982059686009e-02  5.9143143083122525e-02  1.9442297914530179e-01  2.1117204750253843e-01  6.5127703318520219e-02  7.6612592245372244e-02  9.4334928193661682e-02  1.6912989735813302e-01  8.4185654908512278e-02  1.0204941933849979e-01  1.6737031719472520e-01  2.4295527348871020e-02  5.3684969131056692e-02  5.4868677683911168e-02  1.8931348356198533e-02  1.0235885150593945e-02  4.8068581090658771e-02  9.2887097590139724e-03  9.5798976158751985e-03  2.7965715510693587e-02  4.0221567467223475e-02  4.0549145126604666e-02  2.1482974056552914e-02  2.2878804097850005e-02  1.6656433765608249e-02  2.3251760843669717e-01  2.3744444179152174e-01  2.2990856237034696e-01  1.2339366503899774e-02  1.8299342433806796e-02  3.3619189501086895e-02  2.2909494943600223e-01  5.8933254943276073e-02  1.3795251459193111e-01  1.2511685437482944e-01  1.1112433037557976e-01  5.6565015921699907e-02  7.3677449606277770e-02  1.5030217469522136e-01  6.0914104342468099e-02  3.9274420745414408e-02  9.4441947477854095e-03  8.7361874376011076e-03  7.9309069678779737e-03  1.9648059304687163e-01  6.7270823960495787e-02  6.8229936495384599e-02  8.2638878841177085e-02  2.2441535973577786e-02  8.5922761970270045e-02  4.6400754987981407e-02  1.8117223415960901e-01  8.9915114916156377e-02  7.9507427719533508e-02  1.9645921475708917e-02  1.5833551084604816e-01  1.7417829402154309e-02  4.1023555022666448e-02  1.5074785871136817e-01  8.8531840969329652e-03  2.0060934133808733e-01  1.3631059245501076e-01  2.9794420678585547e-02  3.2617408958386690e-02  3.3759641033383712e-02  1.8074455965654806e-02  1.1793690156217798e-01  1.3293636520230848e-01  8.4827777642790831e-03  1.6458095429125495e-02  1.5217362214267730e-01  6.7375692531984527e-02  6.8234568650782479e-02  2.7957670856813683e-02  5.1673002069416100e-02  9.2041421940896422e-03  4.2642075624731948e-02  1.0125680990847170e-01  1.8960592027550224e-02  1.2947410343729363e-01  1.9561522563264472e-01  2.1130892705901988e-01  2.1650796575226117e-01  6.6825453184278807e-02  9.7639056092286847e-02  1.4782281591538007e-01  8.3009175788734870e-03  7.9263516292045373e-03  1.7310538045240013e-02  1.7666962581706531e-02  4.7370645130093330e-03  3.9190838831441838e-02  2.5457259773493800e-02  9.8199875925322533e-02  9.9316743307056709e-03  8.0184707317608045e-02  3.6364233306820266e-02  4.8725247803969300e-02  6.3875852747169573e-02  1.0633460386006624e-01  1.1657451427406491e-01  2.1892781659644281e-01  1.7787506382945378e-02  8.0757337706540380e-02  1.3761614373500664e-01  1.2581749663571282e-01  1.6503391771724593e-02  1.7291445597144986e-01  1.6102570048891032e-01  1.7082701768417477e-01  1.5106880576308532e-01  3.4972824586054614e-02  1.2900722573469492e-01  7.8372108333824603e-02  1.0088821134080053e-01  5.7971945012022831e-02  4.3321170066851551e-02  1.3701643563791201e-02  1.0657563620543960e-01  1.1307823598069290e-01  1.8806076849333780e-01  3.2604483552439174e-02  1.7685125462035814e-01  1.5957117171074642e-01  2.0168195221441108e-02  9.4276849285068853e-02  6.7721078277892990e-02  1.4940224387457107e-02  1.2046571593620223e-01  2.2491148758320637e-01  1.6652415494040818e-01  3.7818115388645504e-02  2.4252325299643052e-02  9.8343059884061917e-02  2.5498120909030378e-02  1.8678453625324189e-02  1.0503282632265432e-01  1.8353420212418808e-01  9.8528567898623839e-03  1.2280224502419612e-01  1.1858168863264310e-01  1.2846242174564595e-01  1.8552510672597583e-02  8.9533315750898082e-02  1.0673668818781371e-01  5.7138236426851091e-02  2.0263835044646442e-01  1.5685752188174473e-01  1.3815582173205304e-02  1.2127201221844877e-01  5.7148379637646365e-02  4.4280097948990182e-02  2.8827096555559872e-02  1.2603287603805027e-01  1.4164598163086090e-01  7.2232769094496579e-02  5.7646767954448105e-02  4.3362765848282005e-02  3.3355060102758842e-02  1.7403078596692587e-01  1.0586819630512050e-01  1.7803121198621315e-02  2.6490056706115893e-02  2.9860006572981098e-02  1.1167258090777765e-01  5.5566430057589489e-02  9.3579919273392195e-02  4.4246687289853516e-02  1.7092361817368182e-01  1.3848060697763528e-02  8.6757976995883987e-02  1.4078133388662584e-01  4.8949409688874582e-02  6.6826843150252996e-03  1.7065115307593759e-01  6.8501401772107076e-02  9.7123825928526725e-02  1.4612652226811643e-01  1.6777351838767208e-02  8.8166721720935287e-02  1.5599021724377390e-01  2.9871678946087166e-02  1.1092824970844111e-02  1.5784249540155545e-02  1.4062072434130993e-02  1.4634817509888740e-01  1.9677025371704443e-01  1.1768676701396369e-01  1.8848228655469776e-01  7.4289488851712951e-02  7.6571968510367211e-02  1.3686030985241415e-01  2.5728354580277384e-02  2.8213111876808025e-02  1.2597047625278818e-01  2.8588583704441395e-02  1.7199888315277995e-01  7.6370762191602659e-02  2.0645690445443138e-01  3.7499904017749691e-02  1.7053345296584738e-01  1.5834549797676800e-01  1.2395713991676534e-01  1.0326553962466614e-01  1.0233071387336898e-01  7.5857215354623961e-02  6.7639557781284776e-02  9.1123648656058764e-02  2.0457859408560772e-01  1.3215963406825012e-02  1.8204367059608321e-02  1.3123045742785784e-02  2.7407941294109554e-02  1.4501789320629813e-01  1.2932342207920595e-02  1.7511755104177856e-01  1.3274902298602875e-01  1.4268291400448219e-01  4.1102268883942555e-02  1.0974520839569320e-01  8.8759431219289392e-02  2.8285495092451811e-02  8.6089067700303556e-02  5.7230439603589639e-03  1.2854658395274641e-02  4.3794098571467918e-02  2.8046192444372200e-02  6.5614587436544580e-02  2.1358422145963740e-02  3.3513380961693436e-02  7.7211819196660411e-02  1.2293806841534466e-01  2.0994276635398076e-01  5.7819993106613338e-03  8.0572779235518043e-03  1.8297884728321369e-02  1.4800510984544740e-01  7.4698515276382230e-02  7.9814037449692954e-02  5.2597058536135957e-02  1.2464994158241066e-02  1.4322440482099080e-01  4.1870560245408577e-02  1.4624826692975734e-01  1.6258262750491928e-01  3.6689801363659715e-02  7.7810673009014494e-02  5.7594039642339313e-02  1.6911053216523902e-02  1.8005644405572924e-02  1.2927002346134331e-01  1.6236638061476208e-01  1.1072118091562766e-01  1.2359037096765202e-02  3.4829120707474501e-02  6.8683202649672037e-02  5.9361459096253413e-02  5.1289561185367087e-02  4.5798851339050095e-02  5.1561635420898089e-02  2.4878851624638727e-02  2.3913670951339450e-02  1.1583667911616354e-01  5.8748833054268253e-03  2.6532453306247258e-02  2.7429509093193520e-02  3.6515416503762325e-02  9.0003781558601996e-03  1.3995036626330505e-02  9.4730520287387050e-03  7.7830596467385474e-03  3.9810830626024238e-02  2.3312437120419988e-02  1.5471160431186662e-01  1.5442372535248031e-01  7.2197110563344075e-02  2.7023174541690970e-02  1.5843469101510067e-02  6.9136482123937609e-02  7.7767006107466201e-03  1.2609070439122873e-02  1.0629898003028228e-01  9.8693775174198459e-02  1.2645861840904772e-02  3.5234037286083722e-02  8.3189138865836273e-02  1.5284895258617504e-01  3.9878644001684463e-02  2.6398103240287275e-02  1.6473054319513264e-02  2.3534666522561817e-01  2.3099241455104447e-01  2.1962808776416284e-01  6.9238252765430081e-02  9.2657748883322993e-03  6.0832352712321590e-02  1.7996581494025130e-01  7.7838308722296412e-03  2.2914427403980548e-02  8.1266227612504058e-02  6.2544403537197757e-02  3.9260590551862672e-02  6.0690988678763916e-03  8.3979148664875866e-02  2.1358791437717014e-02  8.4563407887393166e-03  1.8735345734813130e-01  1.0909106821490734e-01  8.4401808802448436e-02  1.5640873509183296e-02  7.4780619729426130e-03  8.0247474125385937e-02  5.2384856156635962e-02  1.9132890434822566e-01  7.7824725394881569e-02  6.7530548097576477e-03  1.1108489646641802e-01  1.6800627817882788e-01  1.2689173429337156e-01  6.4671260127143720e-02  1.3584989600330705e-01  1.1656202636933724e-01  1.3392803386655058e-01  1.6989119933525899e-02  4.4305938831806689e-02  2.3019575262654832e-01  1.2850092040735753e-01  1.8185678028136198e-01  1.8518392595366043e-01  1.7858696988834244e-01  2.0206825618497046e-01  1.9924798098168917e-01  7.8074618442088043e-03  5.8458138864328464e-03  1.0505433474771123e-01  1.1255718235629565e-01  1.0831251694351733e-01  1.1982760802889147e-01  2.3608857472949768e-01  5.3202413537752798e-02  1.2822678721965956e-02  1.3994115807639695e-01  1.9717909602887287e-02  1.5040893416746508e-02  1.3528741870206961e-02  5.6091716405388306e-02  1.7231265898883595e-02  1.3762080650836803e-01  2.9864593398270540e-02  9.2007365132898741e-02  2.7894954530103527e-02  2.3428110026601105e-02  2.2610933719766077e-01  2.2589339210915202e-01  2.5648663621254862e-02  1.0103989312578240e-01  9.4581185334802857e-03  2.3156783100732253e-01  4.1672501453961105e-02  7.5076878330871876e-03  1.8173133446659623e-01  1.8054449750100016e-01  6.6248719315770477e-02  3.2908399152190744e-02  9.7304382826316468e-02  1.3498149945372706e-01  1.0712377186418530e-02  2.1988702996884510e-01  1.8786212393341432e-02  2.9582699417211242e-02  1.4333951219307348e-01  2.2814494308503439e-02  2.1493377972493649e-01  9.2244679683190348e-02  3.9752580809044480e-02  5.0854039163817442e-02  7.0879053118320046e-02  2.8055755953577927e-02  5.9037282467135917e-02  7.7350707159184420e-02  1.3209352822398104e-01  7.2263863759895811e-02  4.0549191719322961e-02  1.1747991900527900e-02  8.0772122463899001e-03  4.1962086198465490e-02  1.4072865877676274e-01  1.6906920097939704e-02  8.6448007637288417e-03  1.2016358667623285e-01  5.8983364630119349e-03  1.4388236326993422e-02  8.4533105296027682e-03  1.6422622731850998e-02  1.3577556010832346e-02  1.3932066318831879e-02  9.7575606599356157e-02  1.4539122072360544e-02  7.0024778744349975e-03  5.1529226173010846e-02  6.7860402460281119e-02  6.0551435912296102e-03  6.3386402052846283e-03  6.5740845408431654e-03  1.6400029546534597e-01  1.4828618343852804e-01  1.3338476653844872e-01  1.4404607827970569e-02  2.0138614354470652e-01  1.5691096836822119e-01  3.8665731447233391e-02  6.0306840249655623e-02  1.3176892693493952e-02  2.2719448164797870e-01  2.6670981742615674e-02  6.9619408280465148e-03  1.9551603955623073e-01  8.4167214378288682e-02  2.3282324864525850e-01  2.3652243622798619e-01  1.2071420723869769e-02  5.3108767972844008e-03  3.9490699236611696e-03  3.9510802854435525e-03  1.1474535798336738e-01  1.3261247181953331e-02  2.1981647700902393e-01  7.0902647170998237e-03  6.3654543889013144e-03  6.2882012128682961e-03  4.1865699337401696e-02  3.4590166205590356e-02  9.6045110678882120e-02  1.7434328148865197e-02  8.8982346198135637e-02  1.8068758126734568e-02  1.9469990046613417e-01  1.9701241673578021e-01  2.0744227280654348e-01  1.7576489806035780e-02  2.0692283548144427e-01  1.6594974857755215e-01  2.1497293750945923e-01  5.3179865755363279e-02  1.3704285743448241e-01  1.3576720856597879e-01  4.6321294629793203e-02  1.1655892650748380e-01  1.0724472274219835e-01  9.9807225846389416e-02  1.3169511843248047e-01  2.0367422840189295e-01  2.2069249651926545e-01  1.5323996496133222e-02  5.9943738551489899e-02  6.1029605230860248e-02  2.0657274052587698e-02  1.8550299816161156e-01  8.6101872641865564e-03  1.0965912495024668e-01  4.9671523198602519e-02  1.3357165397291410e-01  1.7330272819333090e-01  9.5401747568464548e-02  5.6565464388742166e-02  9.1202805653524580e-02  1.5757838396265522e-01  1.4504099617534227e-01  3.9164440304767241e-02  1.2551187737553040e-02  1.7631832074590420e-01  2.1057075865244832e-02  1.6603307560304467e-02  1.1400048382132377e-01  6.7012951790276318e-02  1.6341778492646794e-01  6.2837435390347002e-02  1.8826779342395117e-01  1.7720287954447120e-02  9.1953034925801702e-02  8.5768569134569428e-02  3.7015282496929924e-02  4.3535502316835110e-02  3.9740865060744188e-02  3.1231162333190288e-02  3.1642545257780132e-02  4.0165238712833590e-02  1.2471432054636754e-01  4.8302174132138741e-02  8.0909112915142634e-02  1.0957542947579821e-01  7.0876033014639878e-02  6.6356864050917064e-02  2.1139814792763410e-02  9.1200350996767654e-02  4.9902590906375340e-02  4.4422452872005323e-02  4.7969585254420660e-02  5.4773842930988977e-02  1.0367904835831705e-01  9.9395732083548100e-02  8.7979938174210168e-02  1.3328973154375398e-01  2.0336487527371161e-02  2.9747074373533057e-02  2.8327878178962804e-02  3.3452744043150309e-02  3.6832447445705199e-02  2.9822654420986496e-02  2.3274518350682373e-02  8.0709615000681703e-02  8.8791180091530558e-02  1.8474311614133883e-02  8.1159204110665475e-03  2.0745280545253375e-02  8.4803273386068356e-02  1.1867706929704377e-01  1.4346038072587425e-01  7.8080092698423545e-02  3.3407560983461912e-02  1.6742212931124212e-01  1.0214690555152597e-01  2.0489140468768173e-02  1.8976953943329972e-01  4.1431142815193174e-02  2.4118873056903231e-02  2.2918479331515747e-02  8.7729927594916469e-03  2.3396976441843974e-02  1.6124614545538180e-02  1.1855106099537115e-01  8.7666368790048146e-02  1.0366994662184403e-01  1.3344138192079982e-01  4.8135610478637431e-02  4.0176366314011933e-02  7.4512764709212795e-02  1.2032148255136257e-02  1.2143150238645478e-01  9.4800729489038879e-02  1.1780183363873015e-01  1.2549264491727308e-01  2.7338586716983995e-02  1.7369786458600923e-02  3.5203063633075772e-02  1.5575013216771356e-02  3.4855189806510638e-02  1.4658838417916114e-02  1.1796897542384764e-02  4.2812880243383242e-02  7.5647993038313502e-02  9.3263785490896832e-03  2.6441252038443299e-02  5.1627372905777187e-02  2.6212324559549402e-02  3.2630093513340910e-02  3.9031435583400970e-02  2.4714102010862441e-02  1.16819131827