<?xml version="1.0"?>
<VTKFile type="UnstructuredGrid"  version="0.1"  >
<UnstructuredGrid>
<Piece  NumberOfPoints="6486" NumberOfCells="12696">
<Points>
<DataArray  type="Float64"  NumberOfComponents="3"  format="ascii">0 2.5 0  0 0 0  2.5 0 0  2.5 2.5 0  1.25 0 0  2.5 1.25 0  1.25 2.5 0  0 1.25 0  1.25 1.25 0  0 0.625 0  0.625 0 0  0.625 2.5 0  0 1.875 0  2.5 0.625 0  1.875 0 0  2.5 1.875 0  1.875 2.5 0  1.770833333333333 0.7291666666666666 0  0.7291666666666666 1.770833333333333 0  0.9375 0.625 0  1.875 1.5625 0  0.642361111111111 1.163194444444444 0  1.341594827586207 1.883979885057471 0  0.46875 0.46875 0  2.03125 2.03125 0  0.3626104797979798 1.513178661616162 0  1.381740196078431 0.4564950980392157 0  0.9375 2.172619047619047 0  2.172619047619047 0.9375 0  2.096354166666667 0.4036458333333332 0  0.4036458333333333 2.096354166666667 0  1.684027777777778 1.163194444444444 0  0.3418803418803419 0.8693910256410255 0  1.642742622813391 2.162164207604464 0  1.275619849389031 0.8465650753054845 0  0.9136284722222221 1.434461805555556 0  1.732437511238546 0.3406962303960658 0  0.9714402568595876 1.029779313093998 0  1.52281746031746 1.485615079365079 0  2.1875 1.71875 0  1.06819722569879 0.2997236128493951 0  2.136114211309524 1.303478422619048 0  0.3125 0 0  0 0.3125 0  2.5 2.1875 0  2.1875 2.5 0  0.3200021620376328 1.192323085056694 0  0.6738456129277992 0.8304377375553881 0  1.757891808928991 1.861952730357003 0  1.5625 0 0  0.9375 0 0  0.3125 2.5 0  2.1875 0 0  2.5 0.9375 0  0 0.9375 0  0 1.5625 0  0.9375 2.5 0  2.5 0.3125 0  0 2.1875 0  1.5625 2.5 0  2.5 1.5625 0  0.7448220909826522 0.3003573636608841 0  1.027298850574712 1.871151477832512 0  1.331260495098891 2.197262878816185 0  1.207917681892289 1.582765010956622 0  0.4339993447432606 1.801186844743261 0  0.6337298768939392 1.443093039772727 0  2.049851190476191 0.6826636904761904 0  0.6584821428571428 2.219122023809524 0  1.89575676467455 0.9798457973793544 0  1.437570562095628 1.059380588255917 0  1.502090052505845 0.6987070896496241 0  0.2040860661083546 1.705323965099331 0  0.2083333333333333 0.46875 0  0.5070952039991439 0.2211150679997147 0  0.6916302856529919 0.5813591430410241 0  2.265625 1.953125 0  2.2265625 2.2265625 0  1.886424081252096 2.243391360417365 0  1.40625 0.202164758520858 0  0.2269345238095238 0.2269345238095238 0  1.152730869673694 0.5225850378741401 0  1.885631899587912 1.312095130148776 0  1.614808884009367 0.9049784971014416 0  1.890095442220658 0.5126535558463003 0  2.323168682795699 0.46875 0  2.268811725689575 0.2304742875213018 0  0.6002389442105756 1.967426444210576 0  0.1768313172043011 2.03125 0  0.2311882743104251 2.269525712478698 0  2.03125 0.176831317204301 0  2.280262553344767 0.6954945504579233 0  1.979219539285994 1.809922269642997 0  2.336309523809524 1.09375 0  1.09375 2.336309523809524 0  0.9314042474388009 1.662973812215543 0  0.1634067999087722 1.40625 0  2.337090640094896 1.40625 0  1.141616997467638 2.069311773587991 0  0.46875 2.338939559681489 0  1.542440307908715 1.734944797244472 0  1.556713687786879 1.956977865354753 0  0.8264238995344066 1.975424467820646 0  1.466326331454725 1.275271369760862 0  1.655675324257095 0.5444159974393489 0  0.3385416666666666 0.6479255698005697 0  0 0.78125 0  0.5236073939200119 0.984090461540625 0  2.091665741047893 1.519793517904215 0  1.71875 2.5 0  0.5356538886262603 1.623137930505009 0  0 1.09375 0  0.1932884281517095 1.015625 0  0.8569313582417669 1.2198915584249 0  0.8876981284879677 0.8329884081524883 0  1.115618488474214 0.7219586973356271 0  1.186950366204949 1.043465130075318 0  2.057459118787237 1.110823087309335 0  1.830651283878689 2.049810069572418 0  1.689107969301489 1.367247437031697 0  0.4921048768039656 1.298643370653124 0  0.8213975694444444 2.336309523809524 0  2.03125 2.5 0  1.049729400480002 1.283723261332814 0  1.308101375801673 0.6489479469700392 0  2.5 2.34375 0  0.4968777175037714 0.7562964879736076 0  1.40625 2.5 0  1.501347663534097 2.307027627307738 0  1.602813712048603 0.1926218191360736 0  0.8393082906308107 0.463778306132633 0  1.682663349152719 1.598471865581041 0  0.7774174680851571 1.560004941327907 0  1.554204170364662 0.3898593897892066 0  1.842184459051087 0.186443880058197 0  1.358107417651776 1.696381759610015 0  1.18859291992392 1.77598670078022 0  0.1875331222687418 0.7609599743339348 0  1.339536743965101 1.422080365801479 0  0.7788179348750389 0.9955343414928611 0  0.9062978492805438 0.1919636509126373 0  1.256007360640958 0.3160320559396114 0  1.09375 0 0  1.174986727221844 0.1594990293443933 0  2.34375 1.796875 0  2.318026474511116 1.589177949022232 0  2.34375 2.5 0  1.672742954892153 2.332882724550692 0  0.2683637361947215 1.874801596909639 0  2.174770749820102 0.5581009131310781 0  1.443279522965991 0.8870068372898454 0  0.3385416666666667 0.3571428571428572 0  0.78125 0 0  2.060421048269335 2.314363248763811 0  1.088078737088509 0.8967352118723447 0  1.087825368444708 1.454931510884769 0  2.018308232129541 0.8548495425854904 0  1.943987311736842 0.3246298523011434 0  1.71875 0 0  1.85337849796276 1.144833312386208 0  2.3486328125 2.1044921875 0  1.407588788651747 2.042968789119587 0  2.336309523809524 0.865366648092144 0  2.34375 0 0  2.5 0.15625 0  0.15625 2.5 0  0 2.34375 0  0.1638044648294291 1.242263417405867 0  0.356216654757926 1.032569427322806 0  0.3188217956111817 1.355736727000647 0  0.5924956460852111 0.36112522004736 0  0.6594216488965849 0.1603472116132387 0  1.841804599497131 1.72214349266521 0  0.15625 0 0  0 0.15625 0  2.115898634821499 1.894570904464496 0  0.7821877980253907 0.7129993435924866 0  1.003820447087786 0.4516053462784233 0  0.477562948779147 1.138333049293613 0  0.719493678605015 1.305655360135975 0  0.9772457618587566 2.020350128938537 0  0.8764738248887107 1.826219722709673 0  1.254787875123819 2.339010653832026 0  2.343597354852534 1.249982759769001 0  0.78125 2.5 0  0.46875 2.5 0  2.5 1.40625 0  1.09375 2.5 0  2.5 0.78125 0  2.5 1.09375 0  2.03125 0 0  2.5 0.46875 0  1.40625 0 0  0.46875 0 0  0 0.46875 0  0 1.40625 0  0 1.71875 0  0 2.03125 0  2.5 1.71875 0  2.5 2.03125 0  2.005424054645407 1.653223486966518 0  0.1538730573856537 1.559850281736677 0  2.33984375 2.33984375 0  1.166539506212474 1.922878979538754 0  0.3914885633949916 1.65887232812171 0  0.5795503163042564 1.766243562569382 0  0.399533125920212 1.946786875081388 0  0.7866324979014098 2.127719094551316 0  0.3654683023546834 0.1495701132219454 0  0.1527388747131078 0.6116379440619215 0  2.013737577140188 1.391056634712135 0  1.17635437372994 2.213329084238133 0  1.737118141866284 1.010577140843115 0  2.200707118087222 1.164723314085963 0  1.697018908736685 1.993548551451517 0  0.5387621649009668 0.6070503962352419 0  2.032805785855952 0.5330427622570983 0  1.082699501358059 1.667818725183932 0  1.503819781540653 0.5468420196858188 0  2.015409142866072 2.175941657590429 0  1.752057611265444 0.869642097111018 0  0.612251684107783 2.356045720700959 0  1.902817102342857 0.6607642211999982 0  2.159616561739693 0.7867739969338844 0  0.5120038350106624 2.197302352398502 0  1.888200216011548 1.919501662489862 0  1.495909909726654 2.16028358757309 0  0.489139876703609 1.443203008943564 0  0.8819175670410521 0.3301172743913011 0  1.882591144370812 0.8155965192707721 0  1.133979796994841 1.172526771862882 0  2.206217447916667 2.084147135416667 0  2.20361328125 2.36279296875 0  1.395746985657004 1.556054166359645 0  1.704383111516207 1.734750450338683 0  0.9575737847222222 2.36274223823052 0  1.035150984253136 0.1302833343179028 0  1.383966125325753 0.7651479963479179 0  1.64003252158672 0.6824316405528895 0  2.22550785055421 1.487078576356817 0  1.760964431499756 1.48495222505201 0  1.276460980673788 2.004207003584658 0  0.1341477688427096 1.828777507920502 0  1.542261434180652 1.155296658359034 0  1.334627911613854 0.9696897472490321 0  1.30794231473696 1.119420615785191 0  0.7028260459857245 0.4438906910721139 0  1.625757433094055 1.84268057552138 0  0.9818707849053143 1.165603626132254 0  2.0086489901463 1.243134585689553 0  1.934584460420609 2.374094051915812 0  1.798434376789567 2.38671361912528 0  1.206314791201715 1.382064292497919 0  0.6333752893366955 0.7023738550008095 0  0.7796219811205605 1.42573253164258 0  1.564399711917382 1.026040828857629 0  0.3385416666666666 0.4889012896825397 0  0.1041666666666667 0.390625 0  0.989112246382566 1.543537365516289 0  2.025724425454636 0.9846960595520872 0  0.6602885475034063 2.086117390485779 0  1.607130551925032 1.267198646640915 0  0.1317864544877056 0.8896173683400176 0  1.755387840017567 2.230364320056445 0  1.301540702984401 0.1216289692748247 0  1.433170657577442 0.3331052752740999 0  1.500459610550388 0.113513924782439 0  0.6494291520606965 1.029586599619295 0  1.010146149868299 0.794897284196169 0  0.3700844198238017 2.235390157870766 0  0.3360891767780704 2.36656279435396 0  1.876856241037701 1.437150669863757 0  1.778674102957329 1.245979347269706 0  0.5472829890977179 0.1005517127039925 0  0.4669074189005698 0.3416784232954367 0  1.472765289289269 1.850899166481903 0  1.555853593327178 1.608452097912802 0  0.6708955559113426 1.646561631116984 0  0.8164699620322933 0.5924479455478063 0  0.3167738989468366 1.758696809749795 0  0.2788007305565096 1.605499483471246 0  0.7821720982350511 0.181524936294752 0  1.376812251214195 2.313340247908297 0  1.785652202614777 0.5962261755537186 0  1.761467296310972 0.4679567244718574 0  2.2265625 1.8359375 0  2.3828125 1.9140625 0  0.5279531607054191 2.071552361614785 0  2.397573269551114 0.234375 0  2.383578172599618 0.3589298466020009 0  0.1024267304488855 2.265625 0  0.1164218274003825 2.141070153397999 0  0.2696857594953064 2.135405441512016 0  2.164961300137334 0.1375322943529536 0  2.137757548369486 0.2724194778647587 0  2.238873711826398 0.3626419179496562 0  0.1001414910226386 0.234375 0  0.2176339285714286 0.3478422619047619 0  0.2503620791333544 0.1061694061057066 0  2.336445461915368 0.1250451055247424 0  0.2154004640409726 2.3918124
[...]
<PointData  Scalars="f_124-0"> 
<DataArray  type="Float64"  Name="f_124-0"  format="ascii">1.5867597748992407e-01  3.8065332548747238e-01  1.4051861059899037e-01  1.3020641003178771e-01  2.6928942523701016e-01  1.3285808603921218e-01  1.6182969298020020e-01  2.9877514775560116e-01  2.7446771296293293e-01  3.6873498226296841e-01  3.4221857978590647e-01  1.6105000792474514e-01  2.2686163510059870e-01  1.3282092233001822e-01  2.0079481347175421e-01  1.3611606033623522e-01  1.5663399635457115e-01  2.1216763383361478e-01  2.4030436888639370e-01  3.1230474939184627e-01  2.0598340230059753e-01  3.0624242886381936e-01  2.2396416677693914e-01  3.6957501183724645e-01  1.8168219613871253e-01  2.6953233196116155e-01  2.5717730698248953e-01  1.9602171142336611e-01  1.6652443813855605e-01  1.7487715107848581e-01  2.0296662241768793e-01  2.2631327256369629e-01  3.4041149619931943e-01  1.9120536310914180e-01  2.7313022427594286e-01  2.7609355674296765e-01  2.1384771159899812e-01  3.0575440765710293e-01  2.4274102570150455e-01  1.6971844398459796e-01  2.9305414253262035e-01  1.7317107457328476e-01  3.7614359021511190e-01  3.9372332377684605e-01  1.3703607540472945e-01  1.4680638615893779e-01  3.0322880577921330e-01  3.3673124607214949e-01  2.0894989616175946e-01  2.3293040970376561e-01  3.0632054994888663e-01  1.5802182730356545e-01  1.6814258461790782e-01  1.3156038990391597e-01  3.2995745995832182e-01  2.6455362495029744e-01  1.6099409430770062e-01  1.3624081388787648e-01  1.9142055067251459e-01  1.5982877445882027e-01  1.3424438464292909e-01  3.3103894882160323e-01  2.2736973007003658e-01  1.9101737946648789e-01  2.5526976367942211e-01  2.3809325816791949e-01  2.7577677567547848e-01  1.7910345384435872e-01  1.8951576596465236e-01  1.9826548388559270e-01  2.5656009403951352e-01  2.4382801423165368e-01  2.4872839504943994e-01  3.8703386410158197e-01  3.5873954295950344e-01  3.4330247129739433e-01  1.5999017841849919e-01  1.5848157495017048e-01  1.7644160361880681e-01  2.5142383221167247e-01  3.9137477640794399e-01  2.8470125953437164e-01  2.0320369256958848e-01  2.3281081978697621e-01  1.9653662194237248e-01  1.4973172738460044e-01  1.5771694084290164e-01  2.1900133569345365e-01  2.0938679918932881e-01  1.8216003938123576e-01  1.8314844533987804e-01  1.5372058323370069e-01  1.9198071984545076e-01  1.4755209446826492e-01  1.7735429713771836e-01  2.5007405396601623e-01  2.8202371721546582e-01  1.4981321808416898e-01  2.0608784710902123e-01  1.7565422734338321e-01  2.2981029739389192e-01  2.1172397334705675e-01  2.1849162657908236e-01  2.5249900299992473e-01  2.2562046554174339e-01  3.6555199814369238e-01  3.4728173115925787e-01  3.2629504892321609e-01  1.7999508606902145e-01  1.5917683963943219e-01  2.5667035503125751e-01  3.1410700831533905e-01  3.2170226015066095e-01  2.9785473252158867e-01  3.1894959400116796e-01  2.9126294417439136e-01  2.8462253508406893e-01  1.7990398031809438e-01  1.9294278796572609e-01  2.2698549246922364e-01  2.9131400759584997e-01  1.7710005490763348e-01  1.5336918911814956e-01  2.8366069166108360e-01  2.6676263951897500e-01  1.3472572262202467e-01  3.5071459049115233e-01  1.6084885036302696e-01  1.7819238273126556e-01  2.2863528605261024e-01  3.2207934290240536e-01  2.2476016631341558e-01  2.6155514665321161e-01  2.3605854741556540e-01  2.0148391262831883e-01  2.4144898629039752e-01  2.3663706501251847e-01  3.5217662461196775e-01  2.6013557946746246e-01  3.1975523517654497e-01  3.1063341619084878e-01  2.7097849727152951e-01  2.8757568392366495e-01  2.8062909942165926e-01  1.5136929753339962e-01  1.5356694359886489e-01  1.3900788798845234e-01  1.7412215499985684e-01  2.2927315756810457e-01  1.6480175770558061e-01  2.5312160526727645e-01  3.8637083820865037e-01  3.2351197733681031e-01  1.6398542515546560e-01  2.9647117729519823e-01  2.6973020052919089e-01  1.8383146285076982e-01  1.9100083161349435e-01  2.1705547121743463e-01  2.0502721730313633e-01  1.5072807924332166e-01  2.0599010227129605e-01  1.4686009796261468e-01  1.5415894616158599e-01  1.3912404465282235e-01  1.5850221373586826e-01  1.7192944569823110e-01  2.9832027469453604e-01  3.2169136623634775e-01  2.8622394829948156e-01  3.5093017375215457e-01  3.3939637332959943e-01  2.0674414130057533e-01  3.8662223399494200e-01  3.8713019461031745e-01  1.7651050172298000e-01  3.3105870207200661e-01  3.0126871596151245e-01  3.1009457615898406e-01  2.9047570027316311e-01  2.1302175335401705e-01  2.3360968980170654e-01  1.7732714774199701e-01  1.4837173797517123e-01  1.6092408102797054e-01  1.5866212624151868e-01  1.3379098489040342e-01  1.6143977278891042e-01  1.3291158461191918e-01  1.3239552318579276e-01  1.8497600779454218e-01  1.3386419773794744e-01  2.4925361321329823e-01  3.6192273423511878e-01  3.8672240534490493e-01  2.8260958992540824e-01  2.4666248105182859e-01  2.1034721712125237e-01  1.3552810397411699e-01  1.3663201934844527e-01  1.9016798286742503e-01  2.6471406771870065e-01  1.4567439985566727e-01  2.2132260033132489e-01  2.5474153321102605e-01  2.4106591660573923e-01  2.2118617813692903e-01  2.0119012701115899e-01  3.7488893148037772e-01  3.7033818021504977e-01  1.8883120731466177e-01  1.9141858733879072e-01  2.1808651558439654e-01  1.6399547757485933e-01  2.0421799000622268e-01  3.5836753380273123e-01  1.8141709838333275e-01  2.4910042389459319e-01  2.4260161661697455e-01  1.7480842221043522e-01  2.1571215147966966e-01  1.7402150058701887e-01  1.9599104220604108e-01  1.6713142480538681e-01  1.9205673896059475e-01  1.9680173266717743e-01  1.9308213856547174e-01  2.7612893707988834e-01  3.1399404546162490e-01  1.9784934384088745e-01  2.8639510120411299e-01  1.6440733291479914e-01  1.5271564794142123e-01  2.4879024662594459e-01  2.1801281878969095e-01  1.7405028946831505e-01  2.9664691107363306e-01  2.5938936776089705e-01  2.2676482867895606e-01  1.6452382382474540e-01  2.1927046175242815e-01  2.1214304924046434e-01  2.3474826306774346e-01  2.4378265375432925e-01  2.6773114570305417e-01  2.7064367640196368e-01  3.3899398916638762e-01  2.1846844501312870e-01  2.9636410334380803e-01  1.8827786212453579e-01  1.6464364732830386e-01  1.6644929002891601e-01  2.7039343369585489e-01  3.4675131580304913e-01  2.7701254755507265e-01  2.4073973424450656e-01  3.8003800542296540e-01  3.9499900657632631e-01  2.6311830001765807e-01  1.8240156627084717e-01  2.0486690610246935e-01  2.3674324630729876e-01  3.3597260953312597e-01  1.8234511812401055e-01  2.6367103486796595e-01  2.5006981156734392e-01  2.3971367681304356e-01  3.1977315758155644e-01  3.0466867493323391e-01  1.8723261925047763e-01  1.7117596526784939e-01  2.0512247550970195e-01  2.1602049771125856e-01  3.5224125889318664e-01  3.6899032413884542e-01  2.2413226648847870e-01  2.3485468259711559e-01  2.5282502005431878e-01  3.2694833285160013e-01  2.4294139035347773e-01  2.6035180381026274e-01  3.2518874187641178e-01  1.7863572387738291e-01  2.1007630159857543e-01  2.1140633880037074e-01  1.6563348202868355e-01  1.4693941107783456e-01  2.0673146104343598e-01  1.4440055201764010e-01  1.4510787184997365e-01  1.8264780319803081e-01  1.9799860387817556e-01  1.9839058843309301e-01  1.6934740228908787e-01  1.7166823232103773e-01  1.6101714142815135e-01  3.9033588387571044e-01  3.9526271773398103e-01  3.8772683776822325e-01  1.5204057941134447e-01  1.6779105877109748e-01  1.9065646639706615e-01  3.8691322481004070e-01  2.1583822715698087e-01  2.9577255293190807e-01  2.8293812980931160e-01  2.6894305851941841e-01  2.1560194779630953e-01  2.3147773400415034e-01  3.0814140991395822e-01  2.2002706075284972e-01  1.9382273046091605e-01  1.4450398124691652e-01  1.4228660672536786e-01  1.4535369972707354e-01  3.5429887874898469e-01  2.2646017997254653e-01  2.2735017709556932e-01  2.4032044474638817e-01  1.7038035802170221e-01  2.4377090220151634e-01  2.0206870143966019e-01  3.3899235886489099e-01  2.4853119781563349e-01  2.3841584960815523e-01  1.6597158127982525e-01  3.1615412516090363e-01  1.6162069935349521e-01  1.9944614839534855e-01  3.0859254247361467e-01  1.4205381413552373e-01  3.5842790249956008e-01  2.9420511565477270e-01  1.8221089221836959e-01  1.8790184284187422e-01  1.8682732473658031e-01  1.6841940608515815e-01  2.7597025870966940e-01  2.9084180781085084e-01  1.4003114553271123e-01  1.5945164355392422e-01  3.1000313637560795e-01  2.2470528870237194e-01  2.2556555075213944e-01  1.8385831138660175e-01  2.0798505233024595e-01  1.4218300881329490e-01  2.0113470164673941e-01  2.5908565919262894e-01  1.6934594706870457e-01  2.8738072537462500e-01  3.5343394619537172e-01  3.6912722326036440e-01  3.7432626418791043e-01  2.2409666163076544e-01  2.5604716728618770e-01  3.0567311917853579e-01  1.3979528108890557e-01  1.3880306199275122e-01  1.6735163355948068e-01  1.6670261516471346e-01  1.3663255411239125e-01  1.9363572239145788e-01  1.7478126800467270e-01  2.5599679175059636e-01  1.5426677457880120e-01  2.3782274232810754e-01  1.9414692563412767e-01  2.0767887905353005e-01  2.2315401735497090e-01  2.6422793733769540e-01  2.7463094748138234e-01  3.7674609238463641e-01  1.6830874246959723e-01  2.3920396471286332e-01  2.9544858866351842e-01  2.8364056904911733e-01  1.6613737496642469e-01  3.3073579996740782e-01  3.1884441926566620e-01  3.2864598855332855e-01  3.0888933683859854e-01  1.8815427223584444e-01  2.8693559405283664e-01  2.3728853020135390e-01  2.5916017612325970e-01  2.1726790836009452e-01  2.0194026034572485e-01  1.5414627925165528e-01  2.6479117830999793e-01  2.7089768629275918e-01  3.4587905585170337e-01  1.8914433890752758e-01  3.3467297732669143e-01  3.1739215685207178e-01  1.6986937935489863e-01  2.5223549720249666e-01  2.2504678913732726e-01  1.5675926607073376e-01  2.7843175885354127e-01  3.8272977024546201e-01  3.2435047595337735e-01  1.9160879441133111e-01  1.7320162993353755e-01  2.5649756330143142e-01  1.7484839866874949e-01  1.6999960505797065e-01  2.6327746141406977e-01  3.4135347210460748e-01  1.4593080905860534e-01  2.8062379781620400e-01  2.7640325680166877e-01  2.8628402334353875e-01  1.6446113309683547e-01  2.4814199160560166e-01  2.6494172508520553e-01  2.1391818451889169e-01  3.6045670831157178e-01  3.1469217699276314e-01  1.5950241298178841e-01  2.7915942511761005e-01  2.1626792741622125e-01  2.0143569811963077e-01  1.8487366356001428e-01  2.8399399958639970e-01  2.9951717561010960e-01  2.3130826412057137e-01  2.1531512778015705e-01  2.0151007840343377e-01  1.8994957853829342e-01  3.3184914238775504e-01  2.6396557951490129e-01  1.6746031652771604e-01  1.8090651766525850e-01  1.8178968890392314e-01  2.6948986475725273e-01  2.1470631196601261e-01  2.5135269584919723e-01  2.0287200080729562e-01  3.2874200137714688e-01  1.5517334365618118e-01  2.4544566225241266e-01  2.9860476715726331e-01  2.0494040434355398e-01  1.4484860631209437e-01  3.2847178408136390e-01  2.2682580757934503e-01  2.5491779386063462e-01  3.0394572115877155e-01  1.6122632790957181e-01  2.4673998542620304e-01  3.1382632753044104e-01  1.8616849259726073e-01  1.5058396577143043e-01  1.5859490592778952e-01  1.6072434567027499e-01  3.0416756523966543e-01  3.5458881929541586e-01  2.7563741116368656e-01  3.4630180247887205e-01  2.3305026005394730e-01  2.3414701792106937e-01  2.9474583060230108e-01  1.7584994652144648e-01  1.7949993930453231e-01  2.8392558961748066e-01  1.8401886317911897e-01  3.2982200523683364e-01  2.3393415514118659e-01  3.6427529524986862e-01  1.9164307468744030e-01  3.2835183059698780e-01  3.1616415103351619e-01  2.8177826356334990e-01  2.6107200546570875e-01  2.6013425303678628e-01  2.3473793190557479e-01  2.2675947117764111e-01  2.4949007354869368e-01  3.6239687022563449e-01  1.5822893229574866e-01  1.7018920949358263e-01  1.6064900677658561e-01  1.8210059768108391e-01  3.0287868813062929e-01  1.5946889257347829e-01  3.3293590320708177e-01  2.9056948013860179e-01  3.0054564431643033e-01  1.9910360411962627e-01  2.6791042258739461e-01  2.4650241390634928e-01  1.7952223366188047e-01  2.4381246356471947e-01  1.3214686144236856e-01  1.5154861318854515e-01  1.9883835883528886e-01  1.8414499666250672e-01  2.2472069068666664e-01  1.7316767425805038e-01  1.8642267741670981e-01  2.3480707141506876e-01  2.8077596483351486e-01  3.6776104204763838e-01  1.3285758223067257e-01  1.4049784539810706e-01  1.6857139187959214e-01  3.0582417932791417e-01  2.3369527041289623e-01  2.3868495926925690e-01  2.0885742063288204e-01  1.5978887284046023e-01  3.0104383950359309e-01  2.0033610208762032e-01  3.0406751976619029e-01  3.2041184738147110e-01  1.9018892723162162e-01  2.3672433374373181e-01  2.1668596554071659e-01  1.6543916618278884e-01  1.6739489963264198e-01  2.8709078095088708e-01  3.2018489119377741e-01  2.6857082920056896e-01  1.5152050669309841e-01  1.9180143706645422e-01  2.2787459272522592e-01  2.1621920462002703e-01  2.0739607649531877e-01  2.0199453573660459e-01  2.1045045314162450e-01  1.7541733599496975e-01  1.7291648720075387e-01  2.7365632626591857e-01  1.3300171916445638e-01  1.7665584378224580e-01  1.7802283632898575e-01  1.9006032332839326e-01  1.4258242662599430e-01  1.5598793153375667e-01  1.4334538374226991e-01  1.4012773110926982e-01  1.9808182101295094e-01  1.7221355005666436e-01  3.1255084956559703e-01  3.1226383256477991e-01  2.2966359305386599e-01  1.8256556743622626e-01  1.6526970282706410e-01  2.2652877763385512e-01  1.4308349599883041e-01  1.5708453290096147e-01  2.6411546700246191e-01  2.5649538270002870e-01  1.5267680814637299e-01  1.9216808917036038e-01  2.4199805391785537e-01  3.1066778368943321e-01  1.9533497472107761e-01  1.8109417004430428e-01  1.6058640892181120e-01  3.9316494086146497e-01  3.8881069153303149e-01  3.7744636473227178e-01  2.2838769834316383e-01  1.4438970292681053e-01  2.1830534310182906e-01  3.3778675855135065e-01  1.3954412672848146e-01  1.7536527292565182e-01  2.3892628497149723e-01  2.1961113715072464e-01  1.9740006336428315e-01  1.4011695703612864e-01  2.4218709367793220e-01  1.7481984782852128e-01  1.4358685142552782e-01  3.4517298164397270e-01  2.6725799514645743e-01  2.4302771405659443e-01  1.5801535670811190e-01  1.3806065974021242e-01  2.3914217842863475e-01  2.1113635572513031e-01  3.4914718687088914e-01  2.3543112945856726e-01  1.3636615343903066e-01  2.6900000130611834e-01  3.2583198953450759e-01  2.8484680186786299e-01  2.2323526927784773e-01  2.9374215816925880e-01  2.7438907576903743e-01  2.9174842073974155e-01  1.6035520128513450e-01  1.9944699415828998e-01  3.8801402812113850e-01  2.8643492229330447e-01  3.3967508413383168e-01  3.4300222321427576e-01  3.3640528630884109e-01  3.5988653654877240e-01  3.5706625941543157e-01  1.3863663000446858e-01  1.3208327618836060e-01  2.6309454928594117e-01  2.7063368698260648e-01  2.6613606247200983e-01  2.7783944293292095e-01  3.9390685042945911e-01  2.1121396834410056e-01  1.5200546205280199e-01  2.9776085347727349e-01  1.6796200367859884e-01  1.5775194264345982e-01  1.5757548761199963e-01  2.1525016238546552e-01  1.6816727995715530e-01  2.9544139268688030e-01  1.8311287573868854e-01  2.4977679050319423e-01  1.8358387897127576e-01  1.7708222199612597e-01  3.8392761256754881e-01  3.8371166747932939e-01  1.7859951398787105e-01  2.5884049253044078e-01  1.5087455846890718e-01  3.8938610640104576e-01  1.9960103970467172e-01  1.3892412447524743e-01  3.3954971198511863e-01  3.3836303837226511e-01  2.2350200076363413e-01  1.8571406766429693e-01  2.5572521515532526e-01  2.9280175402824182e-01  1.5561123800555304e-01  3.7770530545668052e-01  1.6480397731671739e-01  1.8136349015901951e-01  3.0115892405852840e-01  1.7089473292467472e-01  3.7275207672334643e-01  2.5078390784665627e-01  1.9775850746519835e-01  2.0988186670359671e-01  2.3002651482090827e-01  1.8352551228998298e-01  2.1595307102569722e-01  2.3539734412628727e-01  2.8996943993334634e-01  2.3119342004118323e-01  1.9513250671590901e-01  1.4932626412052727e-01  1.3921889499068968e-01  2.0001635772028403e-01  2.9859874319108726e-01  1.6678657630088997e-01  1.4041196343481660e-01  2.7798441006925206e-01  1.4279598959246737e-01  1.6113253423420604e-01  1.5062172204701668e-01  1.6447590539033982e-01  1.5897844572609349e-01  1.6105220744042681e-01  2.5598571811487103e-01  1.6125775906993969e-01  1.3527133430511398e-01  2.0783009384631540e-01  2.2521171120167918e-01  1.3253286723562815e-01  1.3334001082930946e-01  1.3392872809543641e-01  3.2182830072997443e-01  3.0613552038496905e-01  2.9128838113333405e-01  1.6169134490111192e-01  3.5920468806031186e-01  3.1472962429388068e-01  1.9307881945519459e-01  2.1942656131819502e-01  1.5809446496768975e-01  3.8501275703805021e-01  1.8080521866271446e-01  1.3749817371047224e-01  3.5333431913470914e-01  2.4186815236556589e-01  3.9064152410479430e-01  3.9434071270061438e-01  1.5807284623373291e-01  1.3601471768792536e-01  1.3259220179281686e-01  1.3382585117532189e-01  2.7282939885057522e-01  1.5995576786085686e-01  3.7763476898938925e-01  1.3615830982081301e-01  1.3717044834741934e-01  1.3496793113709260e-01  1.9664355695978017e-01  1.9203609316227566e-01  2.5447470203833539e-01  1.6670196877016566e-01  2.4673029250924733e-01  1.6853854288134856e-01  3.5251819728390404e-01  3.5483080452151772e-01  3.6526056124680290e-01  1.6249807244704084e-01  3.6474111132015130e-01  3.2377012722258625e-01  3.7279125026027582e-01  2.1210821498581731e-01  2.9492565926079312e-01  2.9358742439770114e-01  2.0515577677255609e-01  2.7461154094544055e-01  2.6544879525558951e-01  2.5816134155426634e-01  2.8960787849678127e-01  3.6149268898564491e-01  3.7851078577725178e-01  1.5743941226705024e-01  2.1893029748788137e-01  2.2033244591195769e-01  1.6715893632138035e-01  3.4332169204634311e-01  1.4059561203792761e-01  2.6781572013201949e-01  2.0876135189767300e-01  2.9142007345471432e-01  3.3112555363949259e-01  2.5346603546522595e-01  2.1582646223648347e-01  2.4896342651237277e-01  3.1540777221820998e-01  3.0288130669210639e-01  1.9357552001026279e-01  1.5146625470696051e-01  3.3413923642140492e-01  1.6815971227370835e-01  1.6040895114415166e-01  2.7209185652165280e-01  2.2428901746236862e-01  3.2123635061651168e-01  2.1996825791064809e-01  3.4608609076485392e-01  1.6212462523511867e-01  2.5049980837136543e-01  2.4449256763496210e-01  1.9484756120721025e-01  1.9864180050638597e-01  1.9401829017402786e-01  1.8316926775200612e-01  1.8358873098731729e-01  1.9809774682371684e-01  2.8268016545219188e-01  2.0731326675759879e-01  2.3975791605470032e-01  2.6739392712748999e-01  2.2995015190174278e-01  2.2547960375534654e-01  1.7392605192848254e-01  2.4896823052693584e-01  2.0588928834514991e-01  1.9965581269772872e-01  2.0660635872354527e-01  2.1402449965087122e-01  2.6194249059110342e-01  2.5775174103457504e-01  2.4663150300445746e-01  2.9111365828163982e-01  1.6754636695713565e-01  1.8581748083780372e-01  1.8404946744307041e-01  1.8999429159136827e-01  1.9409816293471396e-01  1.8532537127009166e-01  1.7725566546011312e-01  2.3858486560349618e-01  2.4653225514208327e-01  1.6332930844898255e-01  1.4026533236805833e-01  1.6717385488277617e-01  2.4354295952930693e-01  2.7671270537832787e-01  3.0132206359090241e-01  2.3578712513997649e-01  1.8651569039942179e-01  3.2524082798326664e-01  2.5994955949696086e-01  1.7328909655303787e-01  3.4758849368845679e-01  1.9632636971209633e-01  1.7804804771628183e-01  1.7716812810229104e-01  1.4339685888642970e-01  1.7205384563774342e-01  1.6385073261716165e-01  2.7657792046812230e-01  2.4604318466771150e-01  2.6152351064969565e-01  2.9134802537378862e-01  2.0696425708685343e-01  1.9830661829344748e-01  2.3355175545232573e-01  1.5119553336545322e-01  2.7925291789955992e-01  2.5320111827526082e-01  2.7584407101665426e-01  2.8345402291895611e-01  1.8200787124598655e-01  1.6637724093320430e-01  1.8861358194311037e-01  1.6289221222698400e-01  1.8805332897848409e-01  1.5710573335418937e-01  1.5831941776311539e-01  2.0096946011060454e-01  2.3321713708885161e-01  1.5172400000878286e-01  1.7702618264548195e-01  2.1064440566691939e-01  1.8035280574615520e-01  1.8893451622604507e-01  1.9666193404704907e-01  1.7816195489459785e-01  2.74641699065