<?xml version="1.0"?>
<VTKFile type="UnstructuredGrid"  version="0.1"  >
<UnstructuredGrid>
<Piece  NumberOfPoints="6454" NumberOfCells="12638">
<Points>
<DataArray  type="Float64"  NumberOfComponents="3"  format="ascii">0 1.5 0  0 0 0  1.5 0 0  1.5 1.5 0  0.75 0 0  1.5 0.75 0  0.75 1.5 0  0 0.75 0  0.75 0.75 0  0 0.375 0  0.375 0 0  0.375 1.5 0  0 1.125 0  1.5 0.375 0  1.125 0 0  1.5 1.125 0  1.125 1.5 0  1.0625 0.4375 0  0.4375 1.0625 0  0.5625 0.375 0  1.125 0.9375 0  0.3854166666666667 0.6979166666666666 0  0.8049568965517241 1.130387931034483 0  0.28125 0.28125 0  1.21875 1.21875 0  0.2175662878787879 0.9079071969696969 0  0.5625 1.303571428571429 0  0.8290441176470589 0.2738970588235294 0  1.303571428571429 0.5625 0  1.2578125 0.2421875 0  0.2421875 1.2578125 0  1.010416666666667 0.6979166666666666 0  0.2051282051282051 0.5216346153846153 0  0.9856455736880344 1.297298524562678 0  0.7653719096334186 0.5079390451832908 0  0.5481770833333334 0.8606770833333333 0  1.039462506743128 0.2044177382376396 0  0.5828641541157527 0.6178675878563986 0  0.9136904761904763 0.8913690476190476 0  1.3125 1.03125 0  0.6409183354192741 0.1798341677096371 0  1.281668526785714 0.7820870535714286 0  0.1875 0 0  0 0.1875 0  1.5 1.3125 0  1.3125 1.5 0  0.1920012972225798 0.7153938510340165 0  0.4043073677566794 0.4982626425332328 0  1.054735085357395 1.117171638214202 0  0.9375 0 0  0.5625 0 0  0.1875 1.5 0  1.3125 0 0  1.5 0.5625 0  0 0.5625 0  0 0.9375 0  0.5625 1.5 0  1.5 0.1875 0  0 1.3125 0  0.9375 1.5 0  1.5 0.9375 0  0.4468932545895913 0.1802144181965304 0  0.7987562970593343 1.318357727289711 0  0.6320399113235965 1.037924776639822 0  0.2603996068459564 1.080712106845956 0  0.3802379261363636 0.8658558238636362 0  0.3950892857142857 1.331473214285714 0  1.229910714285714 0.4095982142857143 0  1.13745405880473 0.5879074784276126 0  0.7482946595664349 0.917427298948138 0  0.8625423372573767 0.63562835295355 0  0.9012540315035069 0.4192242537897745 0  0.6862861647268528 1.220560482834343 0  0.1224516396650128 1.023194379059598 0  0.125 0.28125 0  0.3042571223994863 0.1326690407998288 0  0.4149781713917952 0.3488154858246145 0  1.359375 1.171875 0  1.3359375 1.3359375 0  1.131854448751258 1.346034816250419 0  0.84375 0.1212988551125148 0  0.1361607142857143 0.1361607142857143 0  0.691638521804216 0.3135510227244841 0  1.131379139752747 0.7872570780892659 0  0.9688853304056201 0.5429870982608649 0  1.134057265332395 0.3075921335077801 0  0.1060987903225806 1.21875 0  0.1387129645862553 1.361715427487219 0  1.393901209677419 0.28125 0  1.361287035413745 0.1382845725127811 0  1.21875 0.1060987903225807 0  0.3601433665263453 1.180455866526345 0  0.5483798738512705 1.157949853770241 0  1.36815753200686 0.4172967302747542 0  1.187531723571597 1.085953361785798 0  1.401785714285714 0.65625 0  0.65625 1.401785714285714 0  0.09804407994526333 0.84375 0  1.402254384056937 0.84375 0  0.28125 1.403363735808893 0  0.925464184745229 1.040966878346683 0  0.9340282126721275 1.174186719212852 0  0.8797957988728348 0.7651628218565172 0  0.9934051945542568 0.3266495984636094 0  0.203125 0.3887553418803418 0  0.3141644363520071 0.590454276924375 0  0 0.46875 0  1.254999444628736 0.9118761107425289 0  1.03125 1.5 0  0.3213923331757561 0.9738827583030052 0  0 0.65625 0  0.1159730568910257 0.609375 0  0.5141588149450601 0.7319349350549398 0  0.5326188770927806 0.499793044891493 0  0.6693710930845284 0.4331752184013763 0  0.7121702197229691 0.6260790780451906 0  1.234475471272342 0.6664938523856012 0  1.098390770327214 1.229886041743451 0  1.013464781580893 0.8203484622190179 0  0.2952629260823795 0.7791860223918741 0  0.4928385416666666 1.401785714285714 0  1.21875 1.5 0  0.6298376402880013 0.7702339567996885 0  0.7848608254810038 0.3893687681820236 0  1.5 1.40625 0  0.4622923140598757 1.236370233688302 0  0.4667991207677928 0.9473088592382519 0  0.2981266305022628 0.4537778927841646 0  0.84375 1.5 0  0.9008085981204581 1.384216576384643 0  0.9616882272291621 0.1155730914816442 0  0.5035849743784865 0.2782669836795798 0  1.009598009491631 0.9590831193486247 0  1.105310675430652 0.1118663280349183 0  0.9288474621627256 0.2227857609567891 0  0.7464170347051563 1.031945227193052 0  0.1125198733612451 0.4565759846003609 0  0.841690222029119 0.9722978654718903 0  0.4672907609250232 0.5973206048957169 0  0.5437787095683263 0.1151781905475824 0  0.7536044163845748 0.1896192335637668 0  0.65625 0 0  0.7049920363331066 0.09569941760663599 0  1.40625 1.078125 0  1.39081588470667 0.9535067694133395 0  1.40625 1.5 0  0.6375104178177308 0.9268732242701165 0  1.003645772935292 1.399729634730415 0  0.1610182417168329 1.124880958145783 0  1.304862449892061 0.3348605478786471 0  0.8685031591756179 0.5174815394805063 0  0.203125 0.2142857142857143 0  0.46875 0 0  1.236252628961601 1.388617949258287 0  0.6528472422531054 0.5380411271234069 0  0.8059365139027533 0.8342920789922936 0  1.210984939277725 0.5129097255512943 0  1.166392387042105 0.1947779113806861 0  1.03125 0 0  1.112027098777656 0.6868999874317245 0  1.4091796875 1.2626953125 0  0.7056210334910562 1.122831931927321 0  0.8445532731910484 1.225781273471752 0  1.401785714285714 0.5192199888552865 0  0.5315992325579575 1.02511262900491 0  1.40625 0 0  1.5 0.09375 0  0.09375 1.5 0  0 1.40625 0  0.09828267889765753 0.7453580504435201 0  0.2137299928547555 0.6195416563936835 0  0.191293077366709 0.8134420362003882 0  0.395652989337951 0.09620832696794322 0  0.3786395303236629 0.2546156254865724 0  1.105082759698279 1.033286095599126 0  0.09375 0 0  0 0.09375 0  1.269539180892899 1.136742542678697 0  0.4693126788152344 0.427799606155492 0  0.6022922682526717 0.2709632077670539 0  0.286537769267488 0.682999829576168 0  0.431696207163009 0.7833932160815852 0  0.6864071374811688 0.8459705255349474 0  0.7528727250742914 1.403406392299215 0  1.40615841291152 0.7499896558614008 0  0.46875 1.5 0  0.28125 1.5 0  1.5 0.84375 0  0.65625 1.5 0  1.5 0.46875 0  1.5 0.65625 0  1.21875 0 0  1.5 0.28125 0  0.84375 0 0  0.28125 0 0  0 0.28125 0  0 0.84375 0  0 1.03125 0  0 1.21875 0  1.5 1.03125 0  1.5 1.21875 0  1.203254432787244 0.991934092179911 0  0.7018429057870754 1.316240552056942 0  0.09232383443139219 0.9359101690420062 0  1.40390625 1.40390625 0  0.2348931380369949 0.995323396873026 0  0.3477301897825538 1.059746137541629 0  0.2397198755521273 1.168072125048833 0  0.21928098141281 0.08974206793316726 0  0.09164332482786468 0.3669827664371529 0  0.4604861261832766 1.147925083553434 0  1.208242546284113 0.8346339808272811 0  1.042270885119771 0.6063462845058686 0  1.320424270852333 0.6988339884515781 0  1.018211345242011 1.19612913087091 0  0.3232572989405801 0.3642302377411452 0  1.219683471513571 0.319825657354259 0  0.9022918689243919 0.3281052118114913 0  1.209245485719643 1.305564994554257 0  1.051234566759267 0.5217852582666107 0  0.3673510104646698 1.413627432420576 0  1.295769937043816 0.4720643981603306 0  0.3072023010063974 1.318381411439101 0  1.141690261405714 0.3964585327199988 0  1.132920129606929 1.151700997493917 0  0.4797323103182937 1.318677829548113 0  0.8975459458359925 1.296170152543854 0  0.464209749529605 0.8633392490855897 0  0.2934839260221656 0.8659218053661386 0  0.5291505402246311 0.1980703646347806 0  1.129554686622487 0.4893579115624633 0  0.6803878781969045 0.7035160631177291 0  1.32373046875 1.25048828125 0  1.32216796875 1.41767578125 0  0.5499851861317793 0.9439128053349233 0  1.022629866909724 1.040850270203209 0  0.5745442708333333 1.417645342938312 0  0.6210905905518814 0.07817000059074161 0  0.8251326424747147 1.051763251304391 0  0.9840195129520318 0.4094589843317338 0  1.335304710332526 0.8922471458140904 0  1.056578658899854 0.8909713350312058 0  0.6311277392046407 1.158870891931624 0  0.08048866130562571 1.097266504752301 0  0.7899471681381695 0.5900550615276262 0  0.787583911300231 0.6744258112570235 0  0.9253568605083915 0.6931779950154204 0  0.6069241236579608 1.236016193461046 0  0.9754544598564333 1.105608345312828 0  0.5891224709431884 0.6993621756793521 0  1.20518939408778 0.7458807514137317 0  0.7661039078070937 1.202429845202379 0  1.160750676252366 1.424456431149488 0  1.07906062607374 1.432028171475168 0  0.3800251736020173 0.4214243130004857 0  0.9386398271504294 0.6156244973145778 0  0.0625 0.234375 0  0.203125 0.2933407738095238 0  1.215434655272782 0.5908176357312523 0  0.3862873976850203 1.253958025454808 0  0.9642783311550196 0.7603191879845486 0  0.07907187269262334 0.5337704210040105 0  1.05323270401054 1.338218592033867 0  0.7809244217906405 0.07297738156489482 0  0.8538188665025647 0.1992768958275427 0  0.9002757663302332 0.06810835486946346 0  0.3896574912364178 0.6177519597715768 0  0.8312147565658268 0.4504658003252042 0  0.6060876899209792 0.4769383705177015 0  0.6973120163099531 0.973865749266754 0  0.2220506518942812 1.34123409472246 0  0.2016535060668421 1.419937676612376 0  1.067204461774397 0.7475876083618238 0  1.126113744622621 0.8622904019182541 0  0.3283697934586307 0.06033102762239553 0  0.3141768357227177 0.2102768223058998 0  0.8836591735735614 1.110539499889141 0  0.9335121559963067 0.9650712587476813 0  0.489881977219376 0.3554687673286838 0  0.1635028372004782 0.9601830799237989 0  0.190064339368102 1.055218085849877 0  0.4693032589410306 0.1089149617768512 0  0.826087350728517 1.388004148744978 0  1.071391321568866 0.357735705332231 0  1.056880377786583 0.2807740346831144 0  1.3359375 1.1015625 0  1.4296875 1.1484375 0  0.3906148988360577 0.9415494491776595 0  0.06145603826933142 1.359375 0  0.06985309644022948 1.2846420920388 0  1.438543961730669 0.140625 0  1.43014690355977 0.2153579079612006 0  0.161811455697184 1.281243264907209 0  1.2989767800824 0.08251937661177217 0  1.282654529021692 0.1634516867188552 0  1.343324227095839 0.2175851507697937 0  0.5747241214300347 1.087143402580354 0  0.1502172474800126 0.06370164366342397 0  0.07677312842259779 0.08704698619211086 0  0.06709364565267519 0.1592134266688963 0  0.1305803571428571 0
[...]
<PointData  Scalars="f_16-0"> 
<DataArray  type="Float64"  Name="f_16-0"  format="ascii">1.1344936758509965e-05  1.4867515102177059e-08  4.9997210235103099e-09  6.9982414674535419e-04  8.7581155202812396e-09  2.5211584641876195e-08  1.2422377485832229e-05  1.1348264089626212e-05  8.8732980132798472e-04  1.1251846081796658e-05  1.1303758036271577e-08  1.1344766738002750e-05  1.1346501558527544e-05  5.1118662675283105e-09  6.9103247000793825e-09  4.8932478893523319e-05  3.3100760827900445e-04  8.9468918186048182e-09  1.2916873648835755e-05  4.8596763398748079e-05  2.4934645697502722e-04  2.6730880157414046e-04  3.8896587570741686e-04  8.9400256930398164e-04  7.4647399983740622e-04  1.1378602890863111e-05  1.1732803312012928e-05  9.1566482852831244e-09  9.6208657326884531e-09  6.2323634544359157e-09  1.1345858644477946e-05  3.0181282106783810e-05  9.5416950773906080e-05  4.5250194206877500e-04  3.2886746296378255e-05  3.4504660675897943e-04  7.3325905573443898e-09  1.1342080590515265e-03  7.5676021062039296e-04  1.2199451884742437e-04  1.0212116940582660e-08  1.4128685459266166e-06  1.2023024256220618e-08  1.2102931761650761e-05  3.1007461921729552e-04  7.6691910758024118e-04  1.2384030473178379e-05  1.5393950696179009e-03  8.9922201182901398e-04  7.7807827889318872e-09  1.0407880850219372e-08  1.1344871730842820e-05  6.0028686901099610e-09  5.1472664259274687e-09  1.1349386532447120e-05  1.1347320910465073e-05  1.1363621451995554e-05  5.0852178021178682e-09  1.1345714070145481e-05  5.4327474940458764e-05  1.8198144210150986e-06  6.5510334643864991e-08  5.4876296079779774e-05  1.1936168402221750e-04  1.1347488891809511e-05  2.2949255975977485e-05  1.1347169280220092e-05  6.4839924330756948e-09  2.0964483741015134e-07  9.5466739034439317e-04  1.0675473908403701e-04  1.3727203181549872e-07  3.4612253816012377e-05  1.1346960764730056e-05  1.9157180277705635e-03  -3.2857363407516975e-08  4.5764862574799043e-04  2.8511103125824578e-04  7.0869418565219235e-04  7.2146303031749622e-04  8.3996266481478004e-09  -6.6535396586495231e-06  2.6515367111591338e-07  3.2437836657073030e-05  1.2706732057885494e-06  6.9234565904940339e-09  1.1346064396818693e-05  1.1345435869661231e-05  5.5593561592113408e-09  5.7657083831150101e-09  6.4368852139521387e-09  1.1363868664653652e-05  1.4233642493118870e-05  5.7323834436511293e-09  4.7069626708363607e-04  1.6738051111296722e-08  1.1977820560467341e-05  1.1347857317945619e-05  9.9078113913533743e-07  1.1345227043301346e-05  9.5689916790982546e-04  7.1198349627529388e-04  4.4049560240468278e-04  7.8871176073550228e-09  1.1313213612713514e-03  3.7919833850455980e-04  1.1352587666010432e-05  5.0454212435761699e-05  1.6063809415435706e-04  1.1729665945613704e-05  1.1348914065981787e-05  1.1690779861917972e-05  8.4298139818434099e-04  7.7331528361225445e-04  3.2132378403478050e-05  4.7635183659805154e-04  2.8716904557312115e-07  8.7461337252669677e-04  2.2520607162292353e-04  1.8042720939841589e-05  1.1357368256297087e-05  5.9959800735649054e-04  1.1329607588967993e-03  7.5180159335097361e-07  5.2783336344636655e-04  1.1470873946460629e-05  3.2985777599951636e-05  1.3938177570695434e-03  1.8627257502627873e-05  1.0739918839232833e-04  7.7418719187162514e-09  4.1669937837107327e-06  6.2152034567969036e-04  6.9880565945765524e-09  8.0620226658086303e-09  5.0344905606413716e-04  2.9349443318542388e-05  9.9668147282845859e-04  1.3331024878224570e-03  1.0510917256463955e-08  9.3263302814727091e-09  9.5517944841516520e-09  9.4720465619350263e-09  6.9958815522638620e-05  1.4755279552031945e-05  7.7881154449032579e-04  5.1278580309610977e-04  2.4497509288265456e-04  1.1346496036471504e-05  6.0249243216423900e-09  5.5148106159082397e-06  9.4693770033295484e-04  1.0862134354706824e-08  8.1323649377336698e-04  3.4505876240661313e-04  9.5515759058431690e-04  9.5228385889256151e-09  6.7217379090832949e-09  7.3295313126912829e-09  3.7973644314741988e-06  3.6810020041719115e-04  1.5227521139911181e-04  2.5768135860251644e-04  5.6095633266176423e-09  3.0634547857961083e-05  5.4492108318014044e-09  5.0126658816678696e-09  1.1344916282214747e-05  1.1345348347597750e-05  1.1350702286074551e-05  2.3976008910592860e-05  1.1427413268323345e-05  1.1323386941976730e-08  3.7072379344868804e-05  5.7259310093476655e-04  1.8455696519271175e-08  5.9597185216087876e-08  3.9685135993807293e-04  6.2028514677446469e-04  2.4830170901279525e-07  3.6293223081602005e-05  1.5898254001495292e-04  1.0266295814966235e-03  1.6201304064799018e-05  9.4509726482796606e-08  1.1345485495002460e-05  1.1344828810922393e-05  2.1441920520630934e-07  1.1474323521053757e-05  5.1123683981374702e-09  6.4584454956825717e-09  6.4114156365936915e-09  5.1128339097420328e-09  8.3009782455011928e-09  1.1659376413548171e-08  1.2069520866879309e-05  1.1347802771991141e-05  1.1346927811483027e-05  1.1346053320534785e-05  1.2208668154593887e-05  1.5311270024999249e-04  1.9445676245643495e-04  1.8847030014132863e-05  1.1347399786584219e-05  6.9534583958157537e-04  1.1352260147225279e-05  1.1544953928363284e-05  1.1346354822916497e-05  -7.6406070990240088e-09  7.0824591018919187e-05  1.1910346776892742e-05  2.3311722455057354e-05  1.4371233808272465e-06  1.3762164907350656e-07  8.2586463472601160e-04  1.5968656560245422e-03  6.4557848829719620e-09  9.6735409883767281e-09  8.5605138652239399e-04  1.7389925099966616e-07  1.1345231971401796e-05  6.2503131014146164e-09  1.1345604023094812e-05  7.0834462701219340e-09  8.2940318239661174e-04  1.1387719210433706e-05  2.2132679875632840e-04  9.0546422715051598e-05  1.2816257599757411e-05  2.3178359961079574e-08  1.6117951753482744e-08  1.0435285933822701e-03  5.5925900123335553e-04  8.0904661418702199e-04  1.1615527157510914e-04  8.3480371653859848e-04  1.1413202357630144e-05  1.0096244513163928e-08  7.1606441887183628e-04  1.3434816109948625e-08  9.9225434028182660e-06  2.9403333243113310e-04  3.0101142760475003e-05  1.1346614040184364e-05  1.2934810434232777e-04  4.0390885980839974e-04  1.1533852065028078e-04  1.4566384607529278e-05  9.2628983072769438e-04  1.2406990256780741e-03  1.5350670743516603e-06  1.4297866454056397e-04  6.0717139058820207e-04  3.6443784402237294e-04  1.4043014189935984e-03  1.5784944266721485e-05  3.9411662255010675e-04  2.4610855596327147e-03  6.8975437088241554e-08  1.1352489822755524e-05  1.7140907495809659e-04  1.1568189199142342e-05  5.4226915860848372e-04  8.7190392161865807e-09  8.5690161648957343e-09  8.0030092405174705e-09  7.2405028116188897e-04  1.7233346863369407e-06  2.7808412600548746e-04  5.3690576235084875e-04  1.1345500987788331e-05  1.1345155911190677e-05  4.0958624536371596e-05  1.1754773028237119e-04  1.1734072626737400e-08  3.6648918407302830e-05  7.2803825581474772e-04  9.0738445306357462e-04  1.4986092257239967e-04  1.1347710633425248e-05  1.1346921008790971e-05  1.0733725059407857e-08  3.7396189978832740e-05  7.4195066846875662e-09  7.3163748770351083e-09  2.0209683332266670e-04  1.3232300007770919e-04  1.5928524487210259e-05  1.1345490606642789e-05  1.1345811894674106e-05  5.3446620762630224e-09  5.4349837692965530e-09  1.1345787143431682e-05  6.0640010367737982e-09  6.1096791021372999e-09  5.8213386919292410e-09  3.3010621197311612e-05  4.6345337610440506e-08  -1.0886808687511076e-06  4.9069613093904137e-05  2.7704805901285169e-03  5.5163414302668000e-09  1.1345145445481041e-05  1.1964707206432585e-05  1.1346575347925211e-05  7.3659016056735818e-09  1.0801233582119294e-08  1.5245389674488710e-08  5.4587078837705567e-06  1.1346155745963387e-05  4.8443763140922601e-04  9.9712648824573256e-04  8.8890405456319179e-04  1.5560857591228134e-05  5.4758782908443313e-09  6.7521408823847894e-09  1.1346328054360840e-05  5.4234119584895521e-09  4.6930099574585022e-04  1.1548625110952295e-05  1.1349258767798851e-05  6.6376909588789257e-07  5.3476673995075836e-05  4.0764146186168468e-04  7.6961605616917883e-09  4.5130532445689271e-04  7.2914031416826270e-08  1.2499716478208397e-05  7.0280547205681034e-09  8.0031915006509866e-04  4.7316728850441017e-04  6.0764808343435716e-09  1.0636929706643761e-08  1.8845324034139036e-08  1.1441815835419467e-05  5.9199049840531396e-09  1.2260754545300713e-05  8.0930941006199970e-09  6.1061215208729367e-05  2.6534060919815978e-04  6.2053105906514233e-04  6.5941987325892666e-09  1.2060582620620751e-05  1.1348075135458311e-05  1.1349579431601779e-05  5.0963828953376008e-07  1.3424878825652799e-06  1.2990849700551556e-03  7.5579107051549534e-09  8.5743720842462018e-04  7.1145043368916369e-09  1.0342674231678735e-05  5.9777096898887771e-04  1.1345214556240964e-05  1.4416796384198708e-04  1.0675836948472815e-03  2.0834935717802391e-03  1.1347111547115169e-05  1.1348814435934304e-05  1.4835033487587929e-07  1.6274513065981407e-08  1.6543226021853256e-05  1.1345173459112314e-05  6.9772587962450762e-04  1.2442430145177545e-04  9.3277927681995405e-06  2.3214389725816723e-08  7.6844984839851294e-04  7.2747705271977400e-04  9.5055175709451794e-08  4.8065172177570746e-05  6.4794651428960954e-04  3.2838447664070578e-04  1.1347583354448512e-05  7.7108688239418640e-04  3.5377566844204115e-06  8.7948304421569048e-04  1.0409772519643392e-03  1.3074866066661138e-05  1.8109490773177790e-04  3.8321254601813029e-05  1.0459700915044395e-03  7.5123795801922892e-04  3.0707322701892497e-04  1.1278995870001973e-03  7.3237451285907763e-09  6.8351168705869105e-09  3.1586452563995399e-05  1.1419855596990167e-07  3.1453410198414701e-06  1.0516971212738613e-05  1.7748312223364377e-05  1.2133977641381511e-03  4.5376005692027860e-04  5.1234056569484744e-05  6.5542828574988098e-05  1.1362170462547498e-05  3.2511506399435583e-07  4.5979162477418709e-08  1.1161816082559632e-04  5.6545585847893826e-07  1.6044415576657272e-05  1.3177234511873410e-04  1.1346564456924331e-05  1.2472489103983249e-03  5.1562156041186349e-09  5.9355328516129337e-09  1.3340911023719723e-05  1.1473176480864009e-05  1.1386274626901892e-05  4.3143589065118619e-04  1.0721618499415668e-04  1.8097683073211971e-03  1.9623811042091243e-04  1.1344798073058829e-05  1.1515312986247067e-03  1.0561245293389677e-03  4.3671409630857043e-04  6.7624138848741358e-05  3.7285520868076453e-05  6.9040764745259520e-04  2.2642879005918139e-04  2.0643823283598482e-05  1.6018947797627906e-05  8.9087093182522580e-05  5.9719140261171324e-04  8.9892251001629246e-04  8.5763901140332760e-04  1.1062625853544099e-08  8.3409256504126157e-06  1.1417163641514748e-05  1.1351351337759101e-05  6.4360080173224522e-09  7.3857667723612765e-04  9.1469204598949837e-09  8.3289485048099029e-09  3.6687516220982339e-04  2.7319104213243951e-04  1.9446364690975345e-05  1.0946758336691175e-08  5.7098424990054797e-09  3.3785344455330106e-05  7.5877662870260392e-09  1.1346863336294632e-05  6.9308149816938510e-04  7.0518562948598547e-09  1.1357001500787724e-04  7.9802791618055220e-04  1.4504640889166393e-03  8.9216068746313635e-04  1.0390038917310174e-08  5.7275776166519202e-09  1.1432525951391079e-05  1.1357100482831567e-05  1.0087956151665542e-04  2.3494185773143396e-04  1.3743390861875035e-08  6.1257801103957164e-09  1.1384670366222043e-05  1.1985664778412282e-05  8.6176479715348222e-04  1.1638827491864753e-05  1.0093367042315573e-08  1.1400456414968820e-05  6.1996071583759918e-09  6.2818578558989804e-09  1.2115993488547225e-05  1.3003962708581896e-04  8.5368971810664081e-04  4.1652074881683593e-04  8.1815511888519985e-09  1.1363283426711113e-05  2.3563777987526142e-04  6.6939240053519719e-09  3.6902223874519171e-07  2.1146856237322862e-05  9.8022820283851440e-09  9.0550414900793655e-09  8.8733178898506476e-09  1.3387156623135270e-08  1.1344829156769642e-05  8.1854812588078756e-04  7.6878603665342772e-04  1.1345360136437813e-05  5.6967515396135931e-05  1.0171719903400574e-04  8.5176249803786440e-09  4.2861901852073582e-04  7.6347154291083515e-04  2.8343162084987043e-04  4.4669218142556798e-04  3.8889679037338248e-04  6.5604704936529732e-04  1.1316455469509930e-04  5.1385853857799636e-09  3.4324792034346713e-06  3.0598106695291296e-06  7.5748437080734067e-04  1.1346438571444392e-05  6.8314394166645791e-04  6.6764595271252786e-09  1.5776753570619038e-05  1.1800487371671643e-08  5.1320698229572944e-09  5.3475930354968201e-09  1.1475444759081941e-05  1.0367912054310719e-08  1.1346619477092312e-05  1.1346733051021102e-05  4.0165596222321084e-07  7.0484354881076227e-04  1.2485106073003840e-08  9.6158888055878874e-04  9.4799992094076390e-04  2.6419415522149332e-07  2.7062197812228836e-05  7.3230207785626231e-05  9.0714145483083957e-07  1.1346770691125673e-05  1.1345015199521504e-05  1.1345002670828383e-05  9.5736648832346712e-09  2.7025213158832375e-05  9.6291361029776601e-09  5.6937746938438461e-09  4.1018378176655109e-06  8.9502816137058993e-07  3.5984375378312109e-04  1.1346074028737810e-05  2.5330045116722601e-04  6.2334044963400395e-09  8.9646954702355336e-09  9.9380012503446156e-09  4.5327093650640914e-06  1.0610904680994596e-03  2.7430780542545170e-04  2.8433097848328696e-06  5.0965318089151985e-09  1.2770743011153286e-08  4.4468374714898162e-08  6.7949212021987837e-09  4.2717364304219086e-05  6.7633009778117451e-05  1.6032634755249223e-04  3.1709022123887897e-05  4.9801191894831634e-09  1.2530915255882854e-08  1.2476394514550748e-03  6.2191984819189184e-09  1.3267706944797234e-05  2.1272450635924144e-05  3.6363200256338944e-06  3.2014999735319980e-04  2.1686502010998150e-04  8.7085609047374800e-05  3.2960680351139672e-04  5.5233047237656556e-04  1.2656990779738115e-06  5.6239291410905759e-09  1.1345665120292807e-05  1.1590762421470163e-05  1.2200220608105335e-04  2.9798372600046374e-07  4.1304905058065893e-04  5.7962933388242368e-09  4.7087430694344926e-05  2.9949063176964046e-03  4.3182121100424977e-05  5.2317627768962952e-09  1.1346561753060213e-05  4.4273067717354192e-04  1.1349334341576513e-05  1.1346371421464053e-05  5.3086855205306365e-09  1.1345323112490579e-05  8.1369721162416149e-09  1.0524321711918758e-03  5.4486341301624623e-04  1.1347566338027712e-05  1.3811644007638925e-05  2.2988282234913504e-05  2.1431404711229893e-04  5.3688060859771194e-04  2.4156217912178288e-04  3.6433324141971607e-05  1.6764439640398540e-07  5.3284304408685643e-09  9.0811588460489750e-04  2.1298533582141631e-04  5.5648455407251548e-05  9.6376267395845033e-09  9.4903845893355940e-05  1.0219003731793109e-03  1.5130964979716775e-05  9.4274223274346035e-04  1.1941895826799173e-05  1.9350863052488302e-07  2.4654364844399281e-06  8.5656588833986772e-08  1.1347329525691525e-05  1.1493611711203650e-05  1.1354585930546601e-05  1.1292873604693099e-08  9.2546159617484446e-09  1.6758090938024283e-08  7.8198881957733344e-09  5.3950678800062445e-09  1.1409997998801537e-05  3.9361362518770940e-04  8.0256488184222768e-04  5.7834742381892803e-08  1.0016313302026291e-08  3.0410585995376845e-04  5.5057789447159641e-04  1.3563817265549630e-05  1.2778128298571218e-05  5.7659094223979799e-09  3.6452146899903354e-04  1.8331338868274200e-04  4.0350630182808567e-04  8.4338860538562958e-04  2.7697755776601087e-04  3.7042633976033394e-04  5.6092477556599941e-04  8.5115251331640311e-09  6.5401768884630108e-04  1.1345912132714873e-05  5.1007765900390906e-09  2.7097831895147791e-05  1.2552897489047645e-03  7.3812797802051493e-04  6.6582526577738371e-04  1.5728432463983275e-04  1.5961966103088075e-05  6.8379343444779998e-07  1.0127950919728209e-04  4.6248859033267575e-04  -1.5017763901430900e-06  6.2607892809615370e-09  5.9207051476715172e-09  6.4521421606847609e-09  1.0262403543698095e-08  1.3352739133665128e-07  1.9092072597590160e-03  1.0593675785928651e-03  7.9299825252267112e-04  1.1527991253070971e-08  2.5936488306244635e-06  8.5714306298324686e-04  7.3354403933835260e-09  7.3143326042829414e-04  7.7699154337330299e-05  2.9357983165952456e-07  4.9389029829133989e-08  1.1345847228142095e-05  1.3123803707235209e-05  1.1348528903011918e-05  2.8497842752048782e-05  3.2062750418363236e-06  9.0397091452481511e-09  7.9708196208541616e-04  7.0491084025883148e-04  1.1345111997048236e-05  1.1344928861051836e-05  1.4683676871452384e-05  1.1347115539853377e-05  1.1344874595453570e-05  5.0503567165837286e-06  7.1445926398732691e-09  7.5741275524353378e-09  1.1366188027629733e-08  6.9078103235371684e-08  5.6398966805117807e-07  1.1348769410815519e-05  1.1348540556084209e-05  1.1348038173059137e-05  1.1390976347591545e-05  1.0669106141036890e-08  1.1346296434986473e-05  6.6809031620840484e-09  1.1344904994710061e-05  1.0337556177379936e-08  5.0721476834517735e-09  1.1345565406151873e-05  1.1472742304727839e-08  8.0127212105121363e-09  -3.2782464232272208e-08  1.0219582821548333e-05  2.2361046487292936e-04  1.1765634033769417e-05  3.9295344814101597e-04  6.5059091004638844e-04  7.3379554987702085e-04  1.1347558020988949e-05  2.7820881540733577e-05  1.1782557190124169e-05  1.1348346309132745e-05  2.9097374671589607e-05  2.2416590748126759e-04  1.1380954957750005e-05  7.8340257855282709e-09  -2.0780079722238120e-07  2.2089286662588302e-08  6.2001792945882002e-05  1.7435665890125891e-03  9.0687657094650365e-04  1.0291319861629102e-03  1.0447624037466793e-04  1.1817518791281620e-08  1.6098002529136257e-05  1.1346067960444732e-05  2.4205844653386140e-05  1.1347607139978919e-05  1.1347353776256335e-05  1.1347192785087531e-05  1.1348591000299937e-05  -9.1905602096471310e-09  3.3286096702185809e-05  3.6276556064232898e-04  3.3406885758523122e-08  8.3930645974040954e-04  4.0488508860662773e-07  1.6604882227668537e-03  6.7043796850745779e-04  5.3658122689103287e-07  9.9963793171568933e-06  1.1347667567267485e-05  1.2831196520322970e-07  1.1674999651707643e-03  4.2827333262762115e-05  6.5182153514603717e-06  2.5696061061739862e-05  8.4949649081996525e-09  8.7215124350668903e-04  1.0031423908790592e-03  1.1842022860300853e-03  5.4157088533629575e-09  6.7847003492368891e-09  8.8296149415588328e-09  9.7358127787273087e-09  7.7789258871778435e-04  6.7871688403861693e-09  5.9414884580669303e-09  5.9779073492743331e-06  9.8324862148264431e-05  4.6174347500755501e-07  7.3838041904429694e-04  4.4622736337527485e-05  7.9354415352020342e-05  3.5985479172383038e-04  4.2300576699918822e-05  1.0818545986430367e-05  3.3742821706508788e-05  4.4127239015650560e-06  1.1347828507171795e-05  1.1915606301712380e-05  1.1360073781095267e-05  1.1829084746274552e-05  1.1346380115584167e-05  1.1346774943080063e-05  1.1766863079875257e-05  3.5490191071934328e-04  3.2403435469147759e-04  1.1591084264445917e-03  7.7508427778819619e-09  7.0679918128523360e-09  2.8358663701528330e-04  3.1798658407309368e-05  1.1345951681631316e-05  1.1348661653401136e-05  1.1405980679556970e-05  1.1347636500436911e-05  6.0298779101272368e-09  1.1345393101113073e-05  1.1345719608553647e-05  1.1345812839181489e-05  1.1345592751944708e-05  2.0601995573820296e-04  5.2887735375989071e-04  1.3745189948073344e-05  1.8640546082060259e-05  3.3217113299660524e-05  1.2098091575350998e-05  1.2962685644096201e-05  5.3946613761175786e-09  1.1419574670107591e-05  2.7768661833388499e-04  6.5163722328454485e-09  8.7123142811081806e-09  3.7169685055600196e-04  7.9138316565726817e-04  6.8374631808162455e-09  2.9651462865135818e-04  7.9404354161234799e-04  8.4618368208666528e-04  1.5255219264541028e-04  6.3103005738487765e-09  1.1351051586859979e-05  1.1345024434123797e-05  1.1750877247601679e-05  1.5670655355577678e-05  1.5097248386327513e-04  1.3528942466628233e-05  8.7507486064228551e-04  8.0956905433972434e-04  5.2939889583773151e-04  5.6343414590979700e-09  1.5462686641327224e-05  1.1344979412880327e-05  1.1345890780781039e-05  -1.1768779177525629e-08  6.6792182101520479e-09  1.1344984771257068e-05  6.8906338512023254e-09  5.6042870179135116e-09  1.2116963013335646e-03  8.1687441576353643e-04  7.7536913047759146e-09  7.5072780224335928e-04  1.4328131233042249e-08  6.2854502490321608e-09  4.9946988597211013e-04  1.1345367596673032e-05  1.1345586795129760e-05  1.1345705907244707e-05  1.1345320367380010e-05  1.8989013662556371e-04  4.1678548014148883e-04  9.9002513173420282e-04  6.6315