<?xml version="1.0"?>
<VTKFile type="UnstructuredGrid"  version="0.1"  >
<UnstructuredGrid>
<Piece  NumberOfPoints="6454" NumberOfCells="12638">
<Points>
<DataArray  type="Float64"  NumberOfComponents="3"  format="ascii">0 1.5 0  0 0 0  1.5 0 0  1.5 1.5 0  0.75 0 0  1.5 0.75 0  0.75 1.5 0  0 0.75 0  0.75 0.75 0  0 0.375 0  0.375 0 0  0.375 1.5 0  0 1.125 0  1.5 0.375 0  1.125 0 0  1.5 1.125 0  1.125 1.5 0  1.0625 0.4375 0  0.4375 1.0625 0  0.5625 0.375 0  1.125 0.9375 0  0.3854166666666667 0.6979166666666666 0  0.8049568965517241 1.130387931034483 0  0.28125 0.28125 0  1.21875 1.21875 0  0.2175662878787879 0.9079071969696969 0  0.5625 1.303571428571429 0  0.8290441176470589 0.2738970588235294 0  1.303571428571429 0.5625 0  1.2578125 0.2421875 0  0.2421875 1.2578125 0  1.010416666666667 0.6979166666666666 0  0.2051282051282051 0.5216346153846153 0  0.9856455736880344 1.297298524562678 0  0.7653719096334186 0.5079390451832908 0  0.5481770833333334 0.8606770833333333 0  1.039462506743128 0.2044177382376396 0  0.5828641541157527 0.6178675878563986 0  0.9136904761904763 0.8913690476190476 0  1.3125 1.03125 0  0.6409183354192741 0.1798341677096371 0  1.281668526785714 0.7820870535714286 0  0.1875 0 0  0 0.1875 0  1.5 1.3125 0  1.3125 1.5 0  0.1920012972225798 0.7153938510340165 0  0.4043073677566794 0.4982626425332328 0  1.054735085357395 1.117171638214202 0  0.9375 0 0  0.5625 0 0  0.1875 1.5 0  1.3125 0 0  1.5 0.5625 0  0 0.5625 0  0 0.9375 0  0.5625 1.5 0  1.5 0.1875 0  0 1.3125 0  0.9375 1.5 0  1.5 0.9375 0  0.4468932545895913 0.1802144181965304 0  0.7987562970593343 1.318357727289711 0  0.6320399113235965 1.037924776639822 0  0.2603996068459564 1.080712106845956 0  0.3802379261363636 0.8658558238636362 0  0.3950892857142857 1.331473214285714 0  1.229910714285714 0.4095982142857143 0  1.13745405880473 0.5879074784276126 0  0.7482946595664349 0.917427298948138 0  0.8625423372573767 0.63562835295355 0  0.9012540315035069 0.4192242537897745 0  0.6862861647268528 1.220560482834343 0  0.1224516396650128 1.023194379059598 0  0.125 0.28125 0  0.3042571223994863 0.1326690407998288 0  0.4149781713917952 0.3488154858246145 0  1.359375 1.171875 0  1.3359375 1.3359375 0  1.131854448751258 1.346034816250419 0  0.84375 0.1212988551125148 0  0.1361607142857143 0.1361607142857143 0  0.691638521804216 0.3135510227244841 0  1.131379139752747 0.7872570780892659 0  0.9688853304056201 0.5429870982608649 0  1.134057265332395 0.3075921335077801 0  0.1060987903225806 1.21875 0  0.1387129645862553 1.361715427487219 0  1.393901209677419 0.28125 0  1.361287035413745 0.1382845725127811 0  1.21875 0.1060987903225807 0  0.3601433665263453 1.180455866526345 0  0.5483798738512705 1.157949853770241 0  1.36815753200686 0.4172967302747542 0  1.187531723571597 1.085953361785798 0  1.401785714285714 0.65625 0  0.65625 1.401785714285714 0  0.09804407994526333 0.84375 0  1.402254384056937 0.84375 0  0.28125 1.403363735808893 0  0.925464184745229 1.040966878346683 0  0.9340282126721275 1.174186719212852 0  0.8797957988728348 0.7651628218565172 0  0.9934051945542568 0.3266495984636094 0  0.203125 0.3887553418803418 0  0.3141644363520071 0.590454276924375 0  0 0.46875 0  1.254999444628736 0.9118761107425289 0  1.03125 1.5 0  0.3213923331757561 0.9738827583030052 0  0 0.65625 0  0.1159730568910257 0.609375 0  0.5141588149450601 0.7319349350549398 0  0.5326188770927806 0.499793044891493 0  0.6693710930845284 0.4331752184013763 0  0.7121702197229691 0.6260790780451906 0  1.234475471272342 0.6664938523856012 0  1.098390770327214 1.229886041743451 0  1.013464781580893 0.8203484622190179 0  0.2952629260823795 0.7791860223918741 0  0.4928385416666666 1.401785714285714 0  1.21875 1.5 0  0.6298376402880013 0.7702339567996885 0  0.7848608254810038 0.3893687681820236 0  1.5 1.40625 0  0.4622923140598757 1.236370233688302 0  0.4667991207677928 0.9473088592382519 0  0.2981266305022628 0.4537778927841646 0  0.84375 1.5 0  0.9008085981204581 1.384216576384643 0  0.9616882272291621 0.1155730914816442 0  0.5035849743784865 0.2782669836795798 0  1.009598009491631 0.9590831193486247 0  1.105310675430652 0.1118663280349183 0  0.9288474621627256 0.2227857609567891 0  0.7464170347051563 1.031945227193052 0  0.1125198733612451 0.4565759846003609 0  0.841690222029119 0.9722978654718903 0  0.4672907609250232 0.5973206048957169 0  0.5437787095683263 0.1151781905475824 0  0.7536044163845748 0.1896192335637668 0  0.65625 0 0  0.7049920363331066 0.09569941760663599 0  1.40625 1.078125 0  1.39081588470667 0.9535067694133395 0  1.40625 1.5 0  0.6375104178177308 0.9268732242701165 0  1.003645772935292 1.399729634730415 0  0.1610182417168329 1.124880958145783 0  1.304862449892061 0.3348605478786471 0  0.8685031591756179 0.5174815394805063 0  0.203125 0.2142857142857143 0  0.46875 0 0  1.236252628961601 1.388617949258287 0  0.6528472422531054 0.5380411271234069 0  0.8059365139027533 0.8342920789922936 0  1.210984939277725 0.5129097255512943 0  1.166392387042105 0.1947779113806861 0  1.03125 0 0  1.112027098777656 0.6868999874317245 0  1.4091796875 1.2626953125 0  0.7056210334910562 1.122831931927321 0  0.8445532731910484 1.225781273471752 0  1.401785714285714 0.5192199888552865 0  0.5315992325579575 1.02511262900491 0  1.40625 0 0  1.5 0.09375 0  0.09375 1.5 0  0 1.40625 0  0.09828267889765753 0.7453580504435201 0  0.2137299928547555 0.6195416563936835 0  0.191293077366709 0.8134420362003882 0  0.395652989337951 0.09620832696794322 0  0.3786395303236629 0.2546156254865724 0  1.105082759698279 1.033286095599126 0  0.09375 0 0  0 0.09375 0  1.269539180892899 1.136742542678697 0  0.4693126788152344 0.427799606155492 0  0.6022922682526717 0.2709632077670539 0  0.286537769267488 0.682999829576168 0  0.431696207163009 0.7833932160815852 0  0.6864071374811688 0.8459705255349474 0  0.7528727250742914 1.403406392299215 0  1.40615841291152 0.7499896558614008 0  0.46875 1.5 0  0.28125 1.5 0  1.5 0.84375 0  0.65625 1.5 0  1.5 0.46875 0  1.5 0.65625 0  1.21875 0 0  1.5 0.28125 0  0.84375 0 0  0.28125 0 0  0 0.28125 0  0 0.84375 0  0 1.03125 0  0 1.21875 0  1.5 1.03125 0  1.5 1.21875 0  1.203254432787244 0.991934092179911 0  0.7018429057870754 1.316240552056942 0  0.09232383443139219 0.9359101690420062 0  1.40390625 1.40390625 0  0.2348931380369949 0.995323396873026 0  0.3477301897825538 1.059746137541629 0  0.2397198755521273 1.168072125048833 0  0.21928098141281 0.08974206793316726 0  0.09164332482786468 0.3669827664371529 0  0.4604861261832766 1.147925083553434 0  1.208242546284113 0.8346339808272811 0  1.042270885119771 0.6063462845058686 0  1.320424270852333 0.6988339884515781 0  1.018211345242011 1.19612913087091 0  0.3232572989405801 0.3642302377411452 0  1.219683471513571 0.319825657354259 0  0.9022918689243919 0.3281052118114913 0  1.209245485719643 1.305564994554257 0  1.051234566759267 0.5217852582666107 0  0.3673510104646698 1.413627432420576 0  1.295769937043816 0.4720643981603306 0  0.3072023010063974 1.318381411439101 0  1.141690261405714 0.3964585327199988 0  1.132920129606929 1.151700997493917 0  0.4797323103182937 1.318677829548113 0  0.8975459458359925 1.296170152543854 0  0.464209749529605 0.8633392490855897 0  0.2934839260221656 0.8659218053661386 0  0.5291505402246311 0.1980703646347806 0  1.129554686622487 0.4893579115624633 0  0.6803878781969045 0.7035160631177291 0  1.32373046875 1.25048828125 0  1.32216796875 1.41767578125 0  0.5499851861317793 0.9439128053349233 0  1.022629866909724 1.040850270203209 0  0.5745442708333333 1.417645342938312 0  0.6210905905518814 0.07817000059074161 0  0.8251326424747147 1.051763251304391 0  0.9840195129520318 0.4094589843317338 0  1.335304710332526 0.8922471458140904 0  1.056578658899854 0.8909713350312058 0  0.6311277392046407 1.158870891931624 0  0.08048866130562571 1.097266504752301 0  0.7899471681381695 0.5900550615276262 0  0.787583911300231 0.6744258112570235 0  0.9253568605083915 0.6931779950154204 0  0.6069241236579608 1.236016193461046 0  0.9754544598564333 1.105608345312828 0  0.5891224709431884 0.6993621756793521 0  1.20518939408778 0.7458807514137317 0  0.7661039078070937 1.202429845202379 0  1.160750676252366 1.424456431149488 0  1.07906062607374 1.432028171475168 0  0.3800251736020173 0.4214243130004857 0  0.9386398271504294 0.6156244973145778 0  0.0625 0.234375 0  0.203125 0.2933407738095238 0  1.215434655272782 0.5908176357312523 0  0.3862873976850203 1.253958025454808 0  0.9642783311550196 0.7603191879845486 0  0.07907187269262334 0.5337704210040105 0  1.05323270401054 1.338218592033867 0  0.7809244217906405 0.07297738156489482 0  0.8538188665025647 0.1992768958275427 0  0.9002757663302332 0.06810835486946346 0  0.3896574912364178 0.6177519597715768 0  0.8312147565658268 0.4504658003252042 0  0.6060876899209792 0.4769383705177015 0  0.6973120163099531 0.973865749266754 0  0.2220506518942812 1.34123409472246 0  0.2016535060668421 1.419937676612376 0  1.067204461774397 0.7475876083618238 0  1.126113744622621 0.8622904019182541 0  0.3283697934586307 0.06033102762239553 0  0.3141768357227177 0.2102768223058998 0  0.8836591735735614 1.110539499889141 0  0.9335121559963067 0.9650712587476813 0  0.489881977219376 0.3554687673286838 0  0.1635028372004782 0.9601830799237989 0  0.190064339368102 1.055218085849877 0  0.4693032589410306 0.1089149617768512 0  0.826087350728517 1.388004148744978 0  1.071391321568866 0.357735705332231 0  1.056880377786583 0.2807740346831144 0  1.3359375 1.1015625 0  1.4296875 1.1484375 0  0.3906148988360577 0.9415494491776595 0  0.06145603826933142 1.359375 0  0.06985309644022948 1.2846420920388 0  1.438543961730669 0.140625 0  1.43014690355977 0.2153579079612006 0  0.161811455697184 1.281243264907209 0  1.2989767800824 0.08251937661177217 0  1.282654529021692 0.1634516867188552 0  1.343324227095839 0.2175851507697937 0  0.5747241214300347 1.087143402580354 0  0.1502172474800126 0.06370164366342397 0  0.07677312842259779 0.08704698619211086 0  0.06709364565267519 0.1592134266688963 0  0.1305803571428571 0
[...]
<PointData  Scalars="f_23826-0"> 
<DataArray  type="Float64"  Name="f_23826-0"  format="ascii">2.6097099710422651e-09  3.1528968568593700e-09  -2.0406421723092846e-15  3.3708707246797403e-09  -3.3071180324007524e-10  6.6108787903232861e-11  6.9822754210972177e-09  8.2131089083824387e-06  6.4828228455536172e-04  1.1238618026345112e-05  -3.7185729455883205e-10  1.1120143480172889e-09  4.9900919687112851e-07  -2.3624185301084160e-15  -3.9290430521254201e-12  1.2921026140922836e-08  1.1666223099152100e-07  4.4722598380865340e-10  1.9467540081008200e-06  4.8521842789097535e-05  1.3797052087696081e-05  2.6363982051264755e-04  4.6916222052821954e-05  8.9399081584752896e-04  1.9683009084636520e-06  4.0123158796253697e-06  7.2075093990351777e-08  -1.7351462901521175e-10  1.8175775492065193e-10  -3.3188431284796143e-13  7.1489242378424969e-08  1.0062054196294997e-05  9.5323640154954445e-05  4.6942907286015903e-06  3.0132280312662725e-05  2.7744520915222822e-04  -1.5263292201596567e-11  1.1022926194500843e-03  2.0256013887596554e-04  5.8780875962578415e-07  -7.8474142247647633e-10  4.3068505207485198e-08  3.0849306343206647e-10  1.2091213289520663e-05  1.2784813821252158e-08  3.6253057168904738e-08  1.0582255570466684e-05  1.5389290853899142e-03  2.5668436863247975e-05  -4.9964759214991914e-11  -9.5000818813556769e-10  1.8195666899080040e-09  -1.4515721952805073e-13  9.7377922450041126e-14  1.1149891754918018e-05  2.7910916600794327e-06  1.5117880832066084e-09  -2.6062239617097539e-15  4.7994800483295973e-08  7.4059404896314831e-08  1.9805466828262394e-09  5.3871983532398541e-08  1.2321952490785776e-06  4.5590983341220336e-05  7.8202470162620893e-07  1.5919085852388994e-05  2.3948976702438174e-08  6.8725262581815758e-13  4.2427586337181802e-08  4.4209808582234693e-04  7.1177500985642375e-05  1.0019561921492209e-07  2.9193525476264028e-06  1.3995515181240709e-06  1.9157062652442967e-03  -4.4567193828812153e-08  4.5763007946801197e-04  2.7858314452084958e-07  1.6907526742719589e-07  1.2751757643175019e-06  -1.8895616767613568e-10  -6.6652544136414065e-06  2.5192824263036836e-07  3.6125448186850369e-06  7.0641415204780020e-07  -4.7646284222771140e-12  1.4372613288683415e-07  1.7747247309158975e-08  -1.8658900698502551e-14  -5.1906810606667014e-14  -7.2820345095609643e-13  2.2673389717665917e-07  1.0971337843740550e-06  -4.7915864647076056e-14  5.5008386566061473e-06  1.6839640035158161e-10  2.2043247153892477e-08  5.3674984605280977e-06  5.9573638802148839e-09  7.4744241136153424e-09  1.1350153275037700e-04  3.1691708786736875e-05  2.1811797708703735e-04  -4.9827135671839775e-11  1.1313075910279330e-03  3.7868662688237217e-04  1.1313118987899096e-05  9.9555835154337254e-07  1.1287150285640251e-07  2.6970890659491407e-06  1.0469599469924241e-05  1.1194644420370287e-05  8.0524014866851341e-04  7.7084815142994115e-04  3.1655382032950475e-05  4.2839699995971605e-04  2.2380336552377079e-08  6.5400449790302322e-06  4.9098237546768663e-05  1.4496161622951128e-05  7.3035945679517444e-09  7.8811108391694820e-08  9.5711357253307455e-04  6.9555062026134998e-07  8.1681909998588602e-09  1.2524118700825825e-07  1.9237912225271526e-05  1.3937771370410113e-03  2.4379929029279009e-08  7.5944174404960236e-07  -4.5342920778072613e-11  4.1554209923745757e-06  6.7375684232303477e-05  -4.9822324562202444e-12  -1.0065108083540570e-10  1.3921420112893921e-04  2.9319810407179662e-05  2.5659155869728480e-04  1.3272201810740161e-03  -9.3839467716730724e-10  -6.1360366994023190e-10  -7.3750923069105869e-10  -7.0496840535554696e-10  7.6604068281703197e-08  5.0132078883721922e-08  1.2607137024953391e-08  3.0386250679753087e-04  6.9945990863953081e-07  4.6670733700498072e-07  -1.5288984602024185e-13  4.3680014761668742e-06  9.4692598245346487e-04  -7.3432007761726463e-10  3.2565767181579642e-07  3.3584885856964059e-04  4.7160889937657055e-04  3.7044599538025694e-10  -2.0171925000525361e-12  -1.4648205533133334e-11  7.0975113719863363e-07  7.8414187944711999e-08  2.7573446508610849e-05  1.1343559948115784e-05  4.3216015871701300e-13  1.1733371700748986e-05  -1.6309970503351893e-14  -2.2747150731227391e-15  2.4018578371914134e-09  1.3021554557337119e-08  8.7543662676580719e-06  2.3371023118678860e-05  6.9017326617727297e-06  -3.4160612291223809e-10  3.7060653803500591e-05  1.9536378045444881e-05  6.7410870537898920e-09  4.7882396096613483e-08  1.2956058591524466e-06  6.2008713617053650e-04  2.3694665469785702e-07  3.4763171722958525e-05  1.4956069650568556e-04  6.9980040333929804e-04  7.9286100561172779e-08  8.5760061530622388e-10  1.2617411942467494e-09  1.5703071718407467e-09  4.3494738542211395e-10  2.3308762019706285e-09  -2.0315420098371423e-15  5.3790004441830986e-12  -7.2623034538491463e-13  -2.6377055845792977e-15  -1.5364884713705640e-10  -3.8453558985615807e-11  1.2057785578124255e-05  5.4195733478600880e-06  1.3229870581037333e-06  1.4828931306396111e-07  6.3300832459560963e-09  1.6179965155375931e-08  3.6160405728983432e-06  3.9021462556369184e-07  3.1092684974684211e-06  3.3860531104440295e-08  1.8916423327182116e-06  1.1711039012516321e-06  2.7354475266314011e-07  -1.9355007507257680e-08  7.0811739604057194e-05  5.7507132021152821e-07  1.1111045400538095e-06  4.9569042598762503e-07  3.9721777678622990e-09  1.7336999497368650e-05  1.5968512469633634e-03  -8.8498569448520684e-13  7.2766062558239072e-10  1.0532658861910920e-06  6.6458282853966338e-08  5.4863355899070422e-09  3.4726783581381134e-12  2.7449115226627894e-08  9.0733221423587486e-12  9.5371801812765867e-06  3.2215088658587449e-08  3.7768263206373726e-06  7.4710522416568333e-05  6.8270212729821475e-06  1.1719218529649984e-08  2.2827622443758592e-09  9.0454082366337905e-04  3.7063345119890589e-07  8.3502237109186982e-08  7.5223769834106206e-05  4.8874813935506491e-05  6.6142219493080793e-09  -9.6855360397108034e-10  1.3392179920559700e-04  2.9485464757469675e-09  9.6237498342139315e-08  3.5177506351573787e-05  4.3542364107912502e-06  6.3553283354984030e-07  1.0895131927979548e-04  3.0750188635968450e-04  5.6669791796946547e-05  5.1967315653174569e-07  5.1638556482344847e-05  1.1632013266676137e-03  1.1489419730422228e-07  1.1544529334581701e-05  3.2730978297076989e-07  4.2092805645487246e-07  1.4042365285886864e-03  8.8022023312045808e-06  3.9410489697865931e-04  2.4610737956030533e-03  7.5013906545351584e-09  8.0483914186031120e-08  5.8345717520693331e-05  1.1437024975417189e-05  2.1374600690210350e-06  -3.1598070877730095e-10  -2.5301810439370779e-10  -8.3808432666631983e-11  7.2195786847126719e-04  1.4848995140930596e-06  2.7586306477656849e-04  2.3384404177142029e-04  2.1673588236527390e-08  6.0692389430453654e-09  8.2231254908273979e-06  9.8754028690992829e-06  3.8066526473008075e-11  3.6637204275587265e-05  6.7808881138734268e-05  1.5153659950491169e-04  1.4982619581040488e-04  2.5614721582742362e-06  1.0403840536184849e-06  -8.6059295698870727e-10  3.0673225946240395e-07  -1.1113701066804176e-11  -1.6518088001436318e-11  4.3733295620869546e-07  6.5413087032241875e-08  7.0888070040101790e-06  2.1303661242752434e-08  6.5690598778612670e-08  -9.0301202393691456e-15  -1.1900788080313334e-14  5.9180704770031039e-08  -1.8058712588058399e-13  -2.0154274735181375e-13  -5.9869772426726587e-14  8.8089761495046331e-06  3.4630767824483212e-08  -1.1003955035304090e-06  4.9057897572033111e-05  2.7704688710884040e-03  -2.0429822955160987e-14  5.7323547791229716e-09  2.1308989767361852e-07  1.0484668762359884e-07  -1.6435592013330295e-11  6.2434251950591705e-10  4.4017479858755786e-09  5.4303742223467020e-06  1.8219371006453296e-07  9.0524040737719204e-05  3.5290209444810623e-04  8.7613125454397156e-04  2.6488214989043701e-06  -1.3029479619752160e-14  -2.2341922371735337e-12  3.0995454886256195e-07  -6.1440425804123588e-15  3.7066152904233040e-08  5.9444554287468032e-07  3.9296838868658482e-07  4.4417262828427150e-07  4.2691955901990300e-07  3.6928577662787899e-04  -4.5043211095017235e-11  1.5381852558541060e-04  6.1220500656731129e-08  8.5856801086312610e-08  -5.9099591261307885e-12  6.2311298975493686e-04  4.7305016260826938e-04  -1.5969109628688698e-13  -8.7533249079792193e-10  4.1105130148637800e-10  1.0234478853797472e-05  4.3864791281354229e-12  1.2242274790325916e-05  -1.0395125936207234e-10  5.6843042489858451e-05  2.3847945467623719e-06  3.7906045006507301e-06  -1.3300992498202903e-12  1.1242079551834799e-08  6.9402994240112858e-06  4.7930752998280181e-06  6.3766828117420277e-09  3.6564905073747058e-09  1.2794529606204169e-03  -2.7678351845790774e-11  2.6093438057059725e-06  -7.5410254545305567e-12  1.2895140298733640e-08  1.3394426547421918e-05  2.5240737566176628e-09  1.4413592422927481e-04  1.0675715789395441e-03  2.0834813861945111e-03  1.9198231361612767e-06  9.6109439651340420e-06  6.0099291197265531e-10  7.6399567523595561e-11  3.7988402883507905e-08  6.5918124540008635e-09  1.0466589786425290e-08  4.2621444527419646e-06  2.1586046582592406e-07  1.2400157124013496e-08  1.0441982509253343e-07  6.6573926845987609e-06  4.6059474495327041e-08  2.1185945839133856e-06  3.8975559155593546e-04  2.0411427347106511e-04  4.1171776568707308e-06  4.8918584157547429e-07  3.5260424294622863e-06  7.8627131379162816e-04  9.7102234196785246e-04  3.1145492905566606e-06  1.6677016907290325e-04  1.0832221939438821e-07  1.0454561040121463e-03  7.4301903277015468e-04  3.0640930574823137e-04  1.1268963852705215e-03  6.7077863195670146e-11  2.5207112819739690e-11  3.1574553489805346e-05  9.9819265027032987e-08  3.0595147914387479e-06  1.0007525599298833e-05  1.7561935095467160e-05  1.2040113952078524e-03  6.7762964129770300e-07  1.2500109160420386e-07  6.5531027815166789e-05  1.1022823811976903e-05  4.4336291326064106e-08  2.6968529192475610e-09  5.6882070270960900e-05  2.5640335540560897e-08  4.2996265439040126e-07  4.3284999095498823e-07  9.4441841960568541e-09  1.2471069626405387e-03  -4.4663141857500590e-15  -1.0020057870486275e-13  5.9426727469379102e-06  3.2352804994071614e-06  1.3216280081083340e-06  4.3142357682721800e-04  1.6282095298183354e-05  1.8097527614046177e-03  1.9479793994814782e-04  1.3389044746354199e-09  8.7725481574552782e-04  6.6227819489205354e-04  3.1461797458044568e-05  6.5108839964069274e-05  3.7088447773116736e-05  1.2839404605268475e-05  1.9105289274631735e-06  1.5540085066100126e-05  1.3780678494329841e-05  2.3436880515567960e-05  3.8119329028482884e-05  1.3945972732371529e-05  4.7495685679816411e-06  -5.7936372665451374e-10  5.5863091860134300e-06  1.9222034847875490e-08  2.3869502710175716e-09  -6.9591922935557100e-13  2.9925032356433893e-04  -5.3029153389500225e-10  -1.6203904605624784e-10  1.0661874060674555e-05  8.0102437412694999e-05  6.9391691922037517e-06  -6.7187415602256386e-10  -4.2810234029581134e-14  2.5618412068505404e-05  -3.1108785430082620e-11  1.1471510598266640e-06  6.6679890748806443e-04  -6.3643286431364097e-12  8.6021998219298448e-05  3.0083072799041015e-08  1.4486490453481582e-03  9.0552410933416957e-05  -8.8926085374214912e-10  -5.1467881136557354e-14  2.0953750513070402e-07  1.0450035688059924e-05  1.3953175498284529e-06  8.6919444989379397e-08  2.0287749524290408e-09  5.0220827598369210e-12  1.5290479636681939e-09  3.7353003068526722e-07  8.6174035778129043e-04  1.1591390858322353e-05  1.1395135173195832e-09  8.3007541468608638e-06  -3.1426283329603123e-13  -4.4046005603783186e-13  7.3546247141851872e-06  1.2972765086617118e-04  2.8705293542043473e-04  7.8875039027803090e-05  -1.1715385890667530e-10  4.5541160935535478e-08  2.3562314842604507e-04  -1.8152884354894389e-12  3.5741888913505594e-07  2.1126546805623489e-05  -8.1309410563169665e-10  -4.5068801131802121e-10  -3.9016183657992493e-10  1.6754755291151068e-09  1.5330075639859565e-09  2.1077101463801555e-07  6.5802008921791682e-07  1.1398067131383147e-08  5.4422144723764821e-05  1.0999069516623312e-07  -2.2364210085915643e-10  4.1840725840900891e-04  4.1703770297948071e-04  1.3761816021620488e-04  3.1497212262416441e-04  3.8888507240861101e-04  5.4620464589876135e-04  1.2419747584779083e-06  9.6659910954277043e-15  1.6391565992006722e-08  4.2570106754616755e-07  2.7873674619311198e-06  4.0000237373143557e-07  8.6053194822431710e-07  -1.9942929599455302e-12  6.8671004519412204e-06  8.6986926959767995e-11  -2.6035901594905656e-15  -7.0927233096549144e-15  5.0253596448067401e-09  -9.6937813592273598e-10  5.6994646877167067e-07  8.4501683832668573e-07  1.2201862914657543e-07  2.0201648031775829e-07  1.2888004348607174e-09  2.4268797553053984e-04  1.7183851330164615e-04  2.2448459225386183e-07  2.2918546053709905e-05  7.2426996765345420e-05  9.0817247265961114e-08  9.2522051393564681e-07  3.4526090149393160e-09  3.1181975291363666e-09  -7.5151576244307622e-10  1.7149053794477886e-05  -1.9050103735254711e-09  7.7822462850333429e-14  1.1501459727183321e-06  2.1804823619261530e-07  1.1867082667847170e-05  1.5067486100215931e-07  1.1574375634871605e-06  -4.1755015111584272e-13  -4.3533507135376749e-10  -9.3598493963452285e-10  4.4779016525044179e-06  6.0352131853601244e-04  2.7412677611765395e-04  2.8316380951307352e-06  -2.2832166177121368e-15  5.4652327427219811e-10  6.4211342919389933e-09  2.5132013213994016e-11  4.2705649570231268e-05  3.4533614643974393e-08  1.6889540521353321e-07  2.9604054398183319e-08  -1.8903386334875960e-15  8.1630531439238410e-10  1.2439418307403148e-03  -3.1015948041894356e-13  1.2307358865993539e-05  2.0120539401307773e-05  1.7154326193167185e-06  1.8483377558294430e-06  2.9241265698439608e-07  2.3323233294889216e-05  3.0481745895860780e-08  1.6025546481738885e-07  1.0001155419968594e-06  -2.8613776597366933e-14  3.9652525160927957e-08  2.9571507259512154e-08  4.6922364725450122e-06  2.8653186198959393e-07  7.8044293031184773e-06  -6.0719746943883623e-14  4.0972502510156302e-05  2.9948945858963186e-03  2.3478966691027222e-05  -6.0893548906701043e-15  2.1006602397090098e-07  3.9510142875189720e-05  1.1257121695734122e-05  5.0505084273388336e-08  -6.6811866519193505e-15  1.1291246806473786e-08  1.3809072871006243e-10  4.8070981858266401e-04  1.9088739254698542e-08  2.9944321742137700e-09  7.4762520435525096e-08  3.4567452896872311e-07  2.1430232585571666e-04  9.9562849693371499e-07  3.9615780359975210e-08  3.6374532308879708e-05  2.7747621535693790e-09  1.2891385635668389e-13  2.9657487854922520e-05  2.7304330538895555e-05  7.8384576438404229e-06  -7.9852066420915383e-10  1.5383705410023877e-08  3.6211308610927992e-04  1.4703557818311522e-05  7.2461966237294043e-05  8.8460660966799851e-06  1.8198743356833328e-07  2.6187366556253500e-08  1.9605460326736839e-08  1.7035797649043929e-06  7.6515942107650949e-08  7.0006112040797252e-06  -3.8204084186335965e-10  -2.4392085836175873e-09  5.1036203016119503e-09  2.0251447586617985e-11  1.0340978046311784e-12  5.6780316631058781e-06  3.7147488873054402e-04  3.0113814405321062e-05  8.3194704826122799e-10  -9.1867398638121105e-10  5.6418593676044569e-07  3.8028425689653865e-04  5.7841005589951616e-07  1.8204409760450343e-07  -4.9376074678525291e-14  1.7540771430720236e-07  5.2994857715171831e-06  3.8200379270313437e-04  4.9403403437825490e-07  2.2420382888075370e-05  2.3917058493223230e-06  1.5834653915786553e-06  -2.2535163692224914e-10  7.1228510304732469e-08  9.1920239194132049e-08  -2.6518291458553568e-15  1.2423120418591111e-06  1.2550890255571602e-03  7.3806805389488122e-04  6.6508993119358123e-04  1.5420537291663283e-04  5.6370558157664887e-06  3.0272315229665428e-07  1.9026275221090391e-06  1.0587414927051299e-07  -1.5134909386751432e-06  -5.4536807825651192e-09  -1.0220787351784684e-13  -7.3896670567004153e-13  -9.8373113332095577e-10  6.6183034844597372e-09  1.9091950199434183e-03  8.1485089374825985e-04  5.1442249525502639e-04  1.5989552641077216e-09  5.1669380606191788e-08  2.5500255796179113e-06  -1.4710853265939602e-11  1.3982507323486413e-04  3.9064032939544913e-06  2.0832978510768119e-09  2.4731048373291619e-10  7.2516408823089520e-08  1.8129138913343299e-08  8.5130272307837303e-06  1.1061343501421684e-07  5.8931120347546961e-09  -4.7305913115030338e-10  2.1770862942606903e-08  5.6696506865737681e-08  5.3598230327764283e-09  2.5058176672313526e-09  1.4706717961562113e-08  1.9338288707936833e-06  1.1324692462309537e-09  3.7628454913707376e-09  -8.2491179272740951e-12  -2.9132154593967033e-11  2.4479955313560830e-11  1.6525407415288788e-10  8.7782568981467999e-10  1.0845157791553009e-05  9.5602813522357376e-06  6.8740267515724400e-06  1.1372148572952083e-05  -8.5645246030338625e-10  2.8511282324762385e-07  -1.8689661628811716e-12  2.1471547571774195e-09  -1.3770177075882681e-09  -2.7450096267306434e-15  2.7860261130124966e-08  -2.1633135674121002e-10  -8.5701183018263531e-11  -4.4498084384784164e-08  1.0207853387935095e-05  1.1102198803636345e-07  4.6034505061607994e-09  1.0254045689554987e-08  5.3126951877243334e-09  5.9978022349365571e-09  4.0002204669523663e-06  3.7585030452393466e-08  1.1770488757799164e-05  1.2275552800361262e-09  1.1138083308401579e-08  1.5041935211096756e-08  4.2413204669210108e-07  1.5220670179429970e-10  -2.1951569632946408e-07  1.0737663812066574e-08  2.4524191980332826e-05  1.7435393559120504e-03  9.0686059114327441e-04  1.0291199926316013e-03  2.6360734346358533e-07  1.0453700483798365e-10  1.6085518365064112e-05  1.3848524068816806e-07  2.4194130545686778e-05  4.1686322784778212e-06  2.9370984159386600e-06  2.1512904680147564e-06  7.2570194916975391e-06  -2.0905173705619169e-08  3.3269055962390364e-05  3.6275365763669982e-04  6.5645188297209349e-10  5.6303334107415324e-05  1.1162824561346268e-08  1.6604169059937369e-03  3.3708674623566002e-04  1.9947207737216566e-09  8.8430133027897947e-06  3.3610603192139690e-06  7.7425530180680780e-08  1.0580355041888952e-03  4.2578213349019154e-05  6.5065084976974089e-06  4.5309734419606658e-06  -3.4724525632454935e-10  1.1233582835787516e-04  9.9677577137215309e-04  1.1441963233337802e-03  -1.0079458148625431e-14  -2.6306520290841541e-12  5.7935404227916052e-11  -5.9528110717341220e-10  7.7764271882096948e-04  2.8837983607219564e-11  4.6061361910855312e-15  2.2050321321580192e-06  1.0704044822344093e-05  4.5006663709245516e-07  1.8880592754021315e-04  2.0047601175333828e-07  6.9117086370399299e-05  5.6622500408772780e-06  3.1016718095583036e-06  9.1252933968263292e-07  1.0323031748822603e-06  2.2251273990355094e-07  5.5463224079271472e-06  2.2822406497339895e-06  8.1838032484706033e-07  1.2512690247467494e-06  3.3628056592583473e-07  4.8139708959863893e-07  2.5979551608648770e-08  2.9754062248057685e-04  7.4730930287994097e-05  1.1567453423251015e-03  1.0959001665133925e-10  -8.0776676436348021e-12  1.7827303232755687e-04  3.9861999475872625e-07  9.8502589597365708e-08  1.2334842040677040e-06  2.0399240069389883e-06  2.5553428832355117e-06  -1.4428537856604854e-13  1.4253597866822880e-08  2.1994550833924088e-08  5.7199746003358083e-08  2.9259256752091211e-08  1.0564030480161792e-06  1.3657654998043697e-04  1.3717329319834717e-05  1.1533015091870364e-07  2.1699003277453697e-05  9.6785165182147556e-07  9.6758642790350025e-07  5.0774664652907993e-14  9.3400381512532564e-06  8.2338832147227492e-05  -1.0227152930749659e-12  -3.1466293189278689e-10  8.1305097181301951e-07  7.9132775193036203e-04  -2.9792085687232042e-12  1.1216385237593628e-04  1.3175838093329540e-06  1.4101741000206258e-06  3.8343466310390245e-08  9.3132652532043943e-13  1.8328843801217178e-08  3.4803290794803417e-09  5.9181278562982000e-06  3.5284344073967235e-06  1.5095431155986869e-04  1.0169598397410660e-05  1.0990869511399525e-05  2.7660619004708395e-05  4.5149578585725427e-04  -2.6528047762250361e-14  9.2677326974306423e-06  2.4023589359831169e-09  1.2005212201576046e-08  -2.3483391440613643e-08  -2.1383485646668437e-12  2.9767161804224494e-09  8.3771823149053695e-12  -3.0651816171260114e-14  1.2116845680447785e-03  1.6952180570782047e-07  -4.6480682813062950e-11  6.5477014575848807e-08  3.7510666754141761e-09  -4.0419721300463292e-13  2.3178740059235513e-05  1.3616694944362440e-08  2.903603