<?xml version="1.0"?>
<VTKFile type="UnstructuredGrid"  version="0.1"  >
<UnstructuredGrid>
<Piece  NumberOfPoints="6486" NumberOfCells="12696">
<Points>
<DataArray  type="Float64"  NumberOfComponents="3"  format="ascii">0 2.5 0  0 0 0  2.5 0 0  2.5 2.5 0  1.25 0 0  2.5 1.25 0  1.25 2.5 0  0 1.25 0  1.25 1.25 0  0 0.625 0  0.625 0 0  0.625 2.5 0  0 1.875 0  2.5 0.625 0  1.875 0 0  2.5 1.875 0  1.875 2.5 0  1.770833333333333 0.7291666666666666 0  0.7291666666666666 1.770833333333333 0  0.9375 0.625 0  1.875 1.5625 0  0.642361111111111 1.163194444444444 0  1.341594827586207 1.883979885057471 0  0.46875 0.46875 0  2.03125 2.03125 0  0.3626104797979798 1.513178661616162 0  1.381740196078431 0.4564950980392157 0  0.9375 2.172619047619047 0  2.172619047619047 0.9375 0  2.096354166666667 0.4036458333333332 0  0.4036458333333333 2.096354166666667 0  1.684027777777778 1.163194444444444 0  0.3418803418803419 0.8693910256410255 0  1.642742622813391 2.162164207604464 0  1.275619849389031 0.8465650753054845 0  0.9136284722222221 1.434461805555556 0  1.732437511238546 0.3406962303960658 0  0.9714402568595876 1.029779313093998 0  1.52281746031746 1.485615079365079 0  2.1875 1.71875 0  1.06819722569879 0.2997236128493951 0  2.136114211309524 1.303478422619048 0  0.3125 0 0  0 0.3125 0  2.5 2.1875 0  2.1875 2.5 0  0.3200021620376328 1.192323085056694 0  0.6738456129277992 0.8304377375553881 0  1.757891808928991 1.861952730357003 0  1.5625 0 0  0.9375 0 0  0.3125 2.5 0  2.1875 0 0  2.5 0.9375 0  0 0.9375 0  0 1.5625 0  0.9375 2.5 0  2.5 0.3125 0  0 2.1875 0  1.5625 2.5 0  2.5 1.5625 0  0.7448220909826522 0.3003573636608841 0  1.027298850574712 1.871151477832512 0  1.331260495098891 2.197262878816185 0  1.207917681892289 1.582765010956622 0  0.4339993447432606 1.801186844743261 0  0.6337298768939392 1.443093039772727 0  2.049851190476191 0.6826636904761904 0  0.6584821428571428 2.219122023809524 0  1.89575676467455 0.9798457973793544 0  1.437570562095628 1.059380588255917 0  1.502090052505845 0.6987070896496241 0  0.2040860661083546 1.705323965099331 0  0.2083333333333333 0.46875 0  0.5070952039991439 0.2211150679997147 0  0.6916302856529919 0.5813591430410241 0  2.265625 1.953125 0  2.2265625 2.2265625 0  1.886424081252096 2.243391360417365 0  1.40625 0.202164758520858 0  0.2269345238095238 0.2269345238095238 0  1.152730869673694 0.5225850378741401 0  1.885631899587912 1.312095130148776 0  1.614808884009367 0.9049784971014416 0  1.890095442220658 0.5126535558463003 0  2.323168682795699 0.46875 0  2.268811725689575 0.2304742875213018 0  0.6002389442105756 1.967426444210576 0  0.1768313172043011 2.03125 0  0.2311882743104251 2.269525712478698 0  2.03125 0.176831317204301 0  2.280262553344767 0.6954945504579233 0  1.979219539285994 1.809922269642997 0  2.336309523809524 1.09375 0  1.09375 2.336309523809524 0  0.9314042474388009 1.662973812215543 0  0.1634067999087722 1.40625 0  2.337090640094896 1.40625 0  1.141616997467638 2.069311773587991 0  0.46875 2.338939559681489 0  1.542440307908715 1.734944797244472 0  1.556713687786879 1.956977865354753 0  0.8264238995344066 1.975424467820646 0  1.466326331454725 1.275271369760862 0  1.655675324257095 0.5444159974393489 0  0.3385416666666666 0.6479255698005697 0  0 0.78125 0  0.5236073939200119 0.984090461540625 0  2.091665741047893 1.519793517904215 0  1.71875 2.5 0  0.5356538886262603 1.623137930505009 0  0 1.09375 0  0.1932884281517095 1.015625 0  0.8569313582417669 1.2198915584249 0  0.8876981284879677 0.8329884081524883 0  1.115618488474214 0.7219586973356271 0  1.186950366204949 1.043465130075318 0  2.057459118787237 1.110823087309335 0  1.830651283878689 2.049810069572418 0  1.689107969301489 1.367247437031697 0  0.4921048768039656 1.298643370653124 0  0.8213975694444444 2.336309523809524 0  2.03125 2.5 0  1.049729400480002 1.283723261332814 0  1.308101375801673 0.6489479469700392 0  2.5 2.34375 0  0.4968777175037714 0.7562964879736076 0  1.40625 2.5 0  1.501347663534097 2.307027627307738 0  1.602813712048603 0.1926218191360736 0  0.8393082906308107 0.463778306132633 0  1.682663349152719 1.598471865581041 0  0.7774174680851571 1.560004941327907 0  1.554204170364662 0.3898593897892066 0  1.842184459051087 0.186443880058197 0  1.358107417651776 1.696381759610015 0  1.18859291992392 1.77598670078022 0  0.1875331222687418 0.7609599743339348 0  1.339536743965101 1.422080365801479 0  0.7788179348750389 0.9955343414928611 0  0.9062978492805438 0.1919636509126373 0  1.256007360640958 0.3160320559396114 0  1.09375 0 0  1.174986727221844 0.1594990293443933 0  2.34375 1.796875 0  2.318026474511116 1.589177949022232 0  2.34375 2.5 0  1.672742954892153 2.332882724550692 0  0.2683637361947215 1.874801596909639 0  2.174770749820102 0.5581009131310781 0  1.443279522965991 0.8870068372898454 0  0.3385416666666667 0.3571428571428572 0  0.78125 0 0  2.060421048269335 2.314363248763811 0  1.088078737088509 0.8967352118723447 0  1.087825368444708 1.454931510884769 0  2.018308232129541 0.8548495425854904 0  1.943987311736842 0.3246298523011434 0  1.71875 0 0  1.85337849796276 1.144833312386208 0  2.3486328125 2.1044921875 0  1.407588788651747 2.042968789119587 0  2.336309523809524 0.865366648092144 0  2.34375 0 0  2.5 0.15625 0  0.15625 2.5 0  0 2.34375 0  0.1638044648294291 1.242263417405867 0  0.356216654757926 1.032569427322806 0  0.3188217956111817 1.355736727000647 0  0.5924956460852111 0.36112522004736 0  0.6594216488965849 0.1603472116132387 0  1.841804599497131 1.72214349266521 0  0.15625 0 0  0 0.15625 0  2.115898634821499 1.894570904464496 0  0.7821877980253907 0.7129993435924866 0  1.003820447087786 0.4516053462784233 0  0.477562948779147 1.138333049293613 0  0.719493678605015 1.305655360135975 0  0.9772457618587566 2.020350128938537 0  0.8764738248887107 1.826219722709673 0  1.254787875123819 2.339010653832026 0  2.343597354852534 1.249982759769001 0  0.78125 2.5 0  0.46875 2.5 0  2.5 1.40625 0  1.09375 2.5 0  2.5 0.78125 0  2.5 1.09375 0  2.03125 0 0  2.5 0.46875 0  1.40625 0 0  0.46875 0 0  0 0.46875 0  0 1.40625 0  0 1.71875 0  0 2.03125 0  2.5 1.71875 0  2.5 2.03125 0  2.005424054645407 1.653223486966518 0  0.1538730573856537 1.559850281736677 0  2.33984375 2.33984375 0  1.166539506212474 1.922878979538754 0  0.3914885633949916 1.65887232812171 0  0.5795503163042564 1.766243562569382 0  0.399533125920212 1.946786875081388 0  0.7866324979014098 2.127719094551316 0  0.3654683023546834 0.1495701132219454 0  0.1527388747131078 0.6116379440619215 0  2.013737577140188 1.391056634712135 0  1.17635437372994 2.213329084238133 0  1.737118141866284 1.010577140843115 0  2.200707118087222 1.164723314085963 0  1.697018908736685 1.993548551451517 0  0.5387621649009668 0.6070503962352419 0  2.032805785855952 0.5330427622570983 0  1.082699501358059 1.667818725183932 0  1.503819781540653 0.5468420196858188 0  2.015409142866072 2.175941657590429 0  1.752057611265444 0.869642097111018 0  0.612251684107783 2.356045720700959 0  1.902817102342857 0.6607642211999982 0  2.159616561739693 0.7867739969338844 0  0.5120038350106624 2.197302352398502 0  1.888200216011548 1.919501662489862 0  1.495909909726654 2.16028358757309 0  0.489139876703609 1.443203008943564 0  0.8819175670410521 0.3301172743913011 0  1.882591144370812 0.8155965192707721 0  1.133979796994841 1.172526771862882 0  2.206217447916667 2.084147135416667 0  2.20361328125 2.36279296875 0  1.395746985657004 1.556054166359645 0  1.704383111516207 1.734750450338683 0  0.9575737847222222 2.36274223823052 0  1.035150984253136 0.1302833343179028 0  1.383966125325753 0.7651479963479179 0  1.64003252158672 0.6824316405528895 0  2.22550785055421 1.487078576356817 0  1.760964431499756 1.48495222505201 0  1.276460980673788 2.004207003584658 0  0.1341477688427096 1.828777507920502 0  1.542261434180652 1.155296658359034 0  1.334627911613854 0.9696897472490321 0  1.30794231473696 1.119420615785191 0  0.7028260459857245 0.4438906910721139 0  1.625757433094055 1.84268057552138 0  0.9818707849053143 1.165603626132254 0  2.0086489901463 1.243134585689553 0  1.934584460420609 2.374094051915812 0  1.798434376789567 2.38671361912528 0  1.206314791201715 1.382064292497919 0  0.6333752893366955 0.7023738550008095 0  0.7796219811205605 1.42573253164258 0  1.564399711917382 1.026040828857629 0  0.3385416666666666 0.4889012896825397 0  0.1041666666666667 0.390625 0  0.989112246382566 1.543537365516289 0  2.025724425454636 0.9846960595520872 0  0.6602885475034063 2.086117390485779 0  1.607130551925032 1.267198646640915 0  0.1317864544877056 0.8896173683400176 0  1.755387840017567 2.230364320056445 0  1.301540702984401 0.1216289692748247 0  1.433170657577442 0.3331052752740999 0  1.500459610550388 0.113513924782439 0  0.6494291520606965 1.029586599619295 0  1.010146149868299 0.794897284196169 0  0.3700844198238017 2.235390157870766 0  0.3360891767780704 2.36656279435396 0  1.876856241037701 1.437150669863757 0  1.778674102957329 1.245979347269706 0  0.5472829890977179 0.1005517127039925 0  0.4669074189005698 0.3416784232954367 0  1.472765289289269 1.850899166481903 0  1.555853593327178 1.608452097912802 0  0.6708955559113426 1.646561631116984 0  0.8164699620322933 0.5924479455478063 0  0.3167738989468366 1.758696809749795 0  0.2788007305565096 1.605499483471246 0  0.7821720982350511 0.181524936294752 0  1.376812251214195 2.313340247908297 0  1.785652202614777 0.5962261755537186 0  1.761467296310972 0.4679567244718574 0  2.2265625 1.8359375 0  2.3828125 1.9140625 0  0.5279531607054191 2.071552361614785 0  2.397573269551114 0.234375 0  2.383578172599618 0.3589298466020009 0  0.1024267304488855 2.265625 0  0.1164218274003825 2.141070153397999 0  0.2696857594953064 2.135405441512016 0  2.164961300137334 0.1375322943529536 0  2.137757548369486 0.2724194778647587 0  2.238873711826398 0.3626419179496562 0  0.1001414910226386 0.234375 0  0.2176339285714286 0.3478422619047619 0  0.2503620791333544 0.1061694061057066 0  2.336445461915368 0.1250451055247424 0  0.2154004640409726 2.3918124
[...]
<PointData  Scalars="f_124-0"> 
<DataArray  type="Float64"  Name="f_124-0"  format="ascii">1.9208421550266908e-01  4.1399521465031824e-01  1.7384635091364672e-01  1.6357555367704391e-01  3.0263131520587183e-01  1.6616597840255035e-01  1.9522491128029387e-01  3.3211703874073850e-01  3.0780960423596299e-01  4.0207687142699577e-01  3.7556046894903156e-01  1.9445135836112057e-01  2.6020467636817668e-01  1.6613552141667579e-01  2.3413676216185847e-01  1.6942376743497972e-01  1.9003388532903603e-01  2.4550956363545920e-01  2.7364655430470142e-01  3.4564663856383115e-01  2.3932535763467344e-01  3.3958431906331893e-01  2.5730707644816975e-01  4.0291690100032795e-01  2.1502698898495454e-01  3.0287424664816598e-01  2.9051919840168988e-01  2.2937200262636140e-01  1.9986447942139290e-01  2.0821861712299222e-01  2.3631455823238767e-01  2.5965518282709360e-01  3.7375338539757530e-01  2.2455587517200168e-01  3.0647211397464363e-01  3.0943546075573980e-01  2.4718964228270549e-01  3.3909629695557925e-01  2.7608294341877043e-01  2.0305841693407028e-01  3.2639603175084531e-01  2.0651160667392701e-01  4.0948547937795976e-01  4.2706521293981936e-01  1.7035950775173903e-01  1.8020535592452083e-01  3.3657069625060787e-01  3.7007313524626911e-01  2.4229258993297120e-01  2.6627231313458599e-01  3.3966243912476740e-01  1.9143209182651164e-01  2.0148334124663103e-01  1.6487065800182013e-01  3.6329934923273044e-01  2.9789556104492937e-01  1.9439397163939767e-01  1.6956303708284640e-01  2.2477517887744439e-01  1.9322568714164695e-01  1.6755013122684376e-01  3.6438083798526633e-01  2.6071243117516057e-01  2.2436924628636770e-01  2.8861171841729993e-01  2.7143558075009167e-01  3.0911868046886803e-01  2.1244503349457347e-01  2.2287135394120849e-01  2.3160737822906266e-01  2.8990198563818936e-01  2.7716990991954393e-01  2.8207046588473628e-01  4.2037575326473342e-01  3.9208143212237168e-01  3.7664436046068800e-01  1.9332877316586583e-01  1.9183379477776996e-01  2.0979926428901974e-01  2.8476572516857762e-01  4.2471666557084481e-01  3.1804314883674295e-01  2.3654559689580584e-01  2.6615272311166588e-01  2.2987855498758886e-01  1.8306636176319346e-01  1.9105546620404454e-01  2.5234511954073346e-01  2.4273263566967013e-01  2.1552329341129006e-01  2.1649024696642968e-01  1.8705730092693995e-01  2.2532303968467410e-01  1.8088265705426598e-01  2.1072132238237806e-01  2.8341608762855341e-01  3.1536561474320463e-01  1.8314396546424047e-01  2.3943351020738571e-01  2.0902623079664273e-01  2.6315245303227830e-01  2.4506781793247615e-01  2.5183521514301266e-01  2.8584089707066063e-01  2.5896237763266777e-01  3.9889388730768011e-01  3.8062362034356884e-01  3.5963693822151438e-01  2.1333629500793697e-01  1.9257379406566011e-01  2.9001231932693189e-01  3.4744889793743511e-01  3.5504414956732100e-01  3.3119662330536159e-01  3.5229148317380404e-01  3.2460483341903745e-01  3.1796442453189039e-01  2.1324536069432909e-01  2.2628867292028104e-01  2.6032740615584571e-01  3.2465590080176632e-01  2.1046900548691203e-01  1.8676769147864922e-01  3.1700258444865731e-01  3.0010452957262290e-01  1.6806711604290109e-01  3.8405647965896428e-01  1.9424465862382442e-01  2.1155548573806451e-01  2.6197719403470399e-01  3.5542123206792170e-01  2.5810214272105186e-01  2.9489709046036117e-01  2.6940044858306744e-01  2.3482585856768137e-01  2.7479105462149239e-01  2.6997936221760099e-01  3.8551851378514251e-01  2.9347748137091878e-01  3.5309712445641123e-01  3.4397530536228110e-01  3.0432038708577008e-01  3.2091757320236608e-01  3.1397098882514629e-01  1.8469978677332410e-01  1.8689922546248100e-01  1.7239629164543005e-01  2.0748949789179483e-01  2.6261596487651506e-01  1.9814200424449854e-01  2.8646349751677092e-01  4.1971272737164667e-01  3.5685386650182360e-01  1.9735116342588285e-01  3.2981306651944425e-01  3.0307210898932135e-01  2.1717316547716958e-01  2.2434274715809804e-01  2.5039739592952426e-01  2.3836912956864106e-01  1.8406554615585963e-01  2.3933568772745042e-01  1.8019173467735305e-01  1.8749640129226808e-01  1.7245031845961711e-01  1.9191094418796073e-01  2.0530821576231953e-01  3.3166216572109430e-01  3.5503325565961941e-01  3.1956584304198460e-01  3.8427206291510541e-01  3.7273826249275399e-01  2.4008629518601107e-01  4.1996412315778769e-01  4.2047208377318573e-01  2.0985262590243667e-01  3.6440059123684665e-01  3.3461060514934371e-01  3.4343646610163131e-01  3.2381759389646897e-01  2.4636603573462193e-01  2.6695207775032270e-01  2.1069277167185607e-01  1.8170244554663412e-01  1.9432464620526529e-01  1.9207032971144844e-01  1.6709864816889705e-01  1.9483747120357067e-01  1.6622595564161025e-01  1.6570537821806039e-01  2.1831783930468288e-01  1.6718172701192499e-01  2.8259550682328338e-01  3.9526462339796764e-01  4.2006429450804922e-01  3.1595148781708005e-01  2.8000459105120779e-01  2.4369287285823721e-01  1.6883442857825237e-01  1.6994468407163918e-01  2.2350981564895572e-01  2.9805600212816119e-01  1.7903411209416856e-01  2.5466575767644573e-01  2.8808352244791263e-01  2.7440810394285631e-01  2.5452976932335669e-01  2.3453826994560151e-01  4.0823082064323707e-01  4.0368006937888429e-01  2.2217288795028944e-01  2.2477076826034859e-01  2.5142843478185034e-01  1.9733470175828405e-01  2.3756233746792554e-01  3.9170942296616590e-01  2.1475882004368910e-01  2.8244246477557050e-01  2.7594351306205889e-01  2.0816030002826313e-01  2.4905407512327199e-01  2.0739550158272924e-01  2.2933295877487556e-01  2.0047179263831730e-01  2.2541053423239216e-01  2.3014491267058101e-01  2.2643250821585198e-01  3.0947084018063986e-01  3.4733593463075335e-01  2.3119125578593333e-01  3.1973699130847993e-01  1.9775167342986869e-01  1.8608748068169789e-01  2.8213218499171622e-01  2.5135499791364180e-01  2.0742303834749548e-01  3.2998880027447530e-01  2.9273125862086274e-01  2.6010673902431797e-01  1.9786219187846329e-01  2.5261239722589029e-01  2.4548737355227276e-01  2.6809076059064280e-01  2.7712454983311829e-01  3.0107303573914179e-01  3.0398556647738456e-01  3.7233587832961029e-01  2.5181100655835509e-01  3.2970599345006757e-01  2.2161953700250239e-01  1.9801904570238105e-01  1.9982772503546900e-01  3.0373533153867688e-01  3.8009320496747645e-01  3.1035445131949391e-01  2.7408163167803712e-01  4.1337989458613733e-01  4.2834089573937445e-01  2.9646023630871271e-01  2.1574315874325278e-01  2.3821392423159618e-01  2.7008514784231874e-01  3.6931449875948513e-01  2.1570098952570682e-01  2.9701292542160296e-01  2.8341170495781148e-01  2.7305557506233508e-01  3.5311504695943247e-01  3.3801056411998459e-01  2.2059046316579581e-01  2.0455558726168419e-01  2.3846439652287466e-01  2.4936241895613712e-01  3.8558314805606558e-01  4.0233221330178165e-01  2.5747489726887812e-01  2.6819665797061182e-01  2.8616701348349050e-01  3.6029022201618671e-01  2.7628357477150028e-01  2.9369375701379774e-01  3.5853063104110527e-01  2.1199868144558995e-01  2.4341823549102248e-01  2.4474827324056073e-01  1.9897289708214425e-01  1.8026625622266382e-01  2.4007808134641928e-01  1.7773178269031670e-01  1.7843939973116218e-01  2.1601093612118358e-01  2.3134895577344455e-01  2.3174064647716128e-01  2.0268828561847274e-01  2.0500943347617945e-01  1.9435666186761302e-01  4.2367777303861409e-01  4.2860460689698737e-01  4.2106872693107750e-01  1.8537688360439605e-01  2.0117794959761415e-01  2.2400980900379483e-01  4.2025511397289605e-01  2.4918015417559788e-01  3.2911444214287472e-01  3.1628001914198645e-01  3.0228494841454007e-01  2.4894644600030225e-01  2.6481965641721378e-01  3.4148329970629471e-01  2.5337083288770340e-01  2.2716467059987550e-01  1.7783432927897641e-01  1.7561459745214930e-01  1.7869542073426214e-01  3.8764076791203844e-01  2.5980301818806478e-01  2.6069308239411004e-01  2.7366234241755744e-01  2.0372029714363665e-01  2.7711280305111941e-01  2.3541064706443701e-01  3.7233424806255505e-01  2.8187323997782548e-01  2.7175809014409641e-01  1.9931188300581373e-01  3.4949601432852972e-01  1.9495944423986086e-01  2.3279387700693949e-01  3.4193443241482585e-01  1.7538004032422996e-01  3.9176979166710674e-01  3.2754700812974236e-01  2.1555254025463610e-01  2.2124486403320670e-01  2.2016918143943978e-01  2.0180098182077702e-01  3.0931216224460406e-01  3.2418370067844676e-01  1.7334868754364605e-01  1.9278881639538076e-01  3.4334502582106763e-01  2.5804720158781397e-01  2.5890746224200734e-01  2.1720735539791466e-01  2.4132699240327357e-01  1.7550205057405768e-01  2.3448095202871772e-01  2.9242755062612347e-01  2.0272805107553143e-01  3.2072261887897346e-01  3.8677583536545934e-01  4.0246911242371491e-01  4.0766815335134138e-01  2.5743857616062116e-01  2.8938915698700024e-01  3.3901500932909323e-01  1.7311457332140243e-01  1.7212259958061027e-01  2.0073375612193561e-01  2.0009166589348679e-01  1.6999818696165431e-01  2.2697755265752484e-01  2.0812191285738260e-01  2.8933868332258139e-01  1.8765231113127920e-01  2.7116464211651103e-01  2.2749446475696344e-01  2.4102456009330805e-01  2.5649701743412018e-01  2.9756983057182973e-01  3.0797285506896321e-01  4.1008798154753573e-01  2.0165850876456348e-01  2.7254597916718354e-01  3.2879047817813561e-01  3.1698245842101264e-01  1.9952043015035720e-01  3.6407768919119782e-01  3.5218630843342758e-01  3.6198787772469226e-01  3.4223122603387562e-01  2.2149609482846214e-01  3.2027748909101755e-01  2.7063081679577389e-01  2.9250212435298784e-01  2.5061148833003000e-01  2.3528745501750611e-01  1.8748224956148776e-01  2.9813311016807303e-01  3.0423957607042534e-01  3.7922094501465820e-01  2.2249975046697884e-01  3.6801486656165960e-01  3.5073404606012759e-01  2.0321201148923013e-01  2.8557739832489054e-01  2.5838870206587561e-01  1.9009390329217574e-01  3.1177365718540823e-01  4.1607165940868296e-01  3.5769236530482745e-01  2.2495059455001751e-01  2.0654259522487758e-01  2.8983948713225199e-01  2.0818926868437029e-01  2.0337460626781176e-01  2.9661939410344157e-01  3.7469536128390918e-01  1.7926326557639968e-01  3.1396568720303153e-01  3.0974514632753747e-01  3.1962591264972895e-01  1.9780143791152183e-01  2.8148405352720329e-01  2.9828365170108190e-01  2.4726010961207356e-01  3.9379859747563595e-01  3.4803406661823383e-01  1.9290825050382820e-01  3.1250131726560065e-01  2.4961153617015175e-01  2.3477815168984167e-01  2.1822940740572083e-01  3.1733589637498000e-01  3.3285906670771243e-01  2.6465083479629753e-01  2.4865717430128395e-01  2.3485378807960006e-01  2.2329425370490652e-01  3.6519103155152877e-01  2.9730749414185986e-01  2.0084588740053269e-01  2.1427060279421620e-01  2.1513145676083434e-01  3.0283175470810403e-01  2.4805066476221463e-01  2.8469458883496523e-01  2.3621827419814928e-01  3.6208389054126605e-01  1.8851086251880628e-01  2.7878780010958748e-01  3.3194665641480153e-01  2.3828234735411705e-01  1.7822960582496863e-01  3.6181367328721953e-01  2.6016786255232066e-01  2.8825968564725007e-01  3.3728761033914806e-01  1.9456591460155329e-01  2.8008203927770609e-01  3.4716821717428920e-01  2.1952370610300623e-01  1.8391716929352683e-01  1.9193305927162832e-01  1.9412440838064995e-01  3.3750945442502689e-01  3.8793070846261773e-01  3.0897930797374373e-01  3.7964369166495693e-01  2.6639247876173366e-01  2.6748892040646144e-01  3.2808772231110878e-01  2.0919137465129989e-01  2.1284160150839798e-01  3.1726748570159286e-01  2.1737871161670402e-01  3.6316389450646558e-01  2.6727605815465844e-01  3.9761718441457539e-01  2.2498500251768619e-01  3.6169371976101855e-01  3.4950604020199449e-01  3.1512015293125456e-01  2.9441389631249804e-01  2.9347614407765266e-01  2.6808024103836658e-01  2.6010222335680949e-01  2.8283204909821125e-01  3.9573875938848757e-01  1.9163841759929862e-01  2.0355112719682372e-01  1.9400936419391734e-01  2.1546346466594707e-01  3.3622057883300061e-01  1.9286609274398245e-01  3.6627779237074093e-01  3.2391136937422266e-01  3.3388753515091113e-01  2.3245308279108085e-01  3.0125234322974170e-01  2.7984430854416442e-01  2.1286346827986044e-01  2.7715435931080434e-01  1.6545932540640490e-01  1.8487978302526287e-01  2.3218023425997777e-01  2.1749686698543463e-01  2.5806393927730875e-01  2.0651307283619108e-01  2.1976451326873989e-01  2.6814897325890907e-01  3.1411785461744107e-01  4.0110293121048696e-01  1.6617275865365347e-01  1.7382402668084762e-01  2.0195378495341412e-01  3.3916606850492553e-01  2.6703778780610227e-01  2.7202727900304352e-01  2.4219934487296638e-01  1.9316913419387569e-01  3.3438572869091321e-01  2.3368346657249897e-01  3.3740940894876265e-01  3.5375373682514527e-01  2.2353068025002742e-01  2.7006675583858136e-01  2.5003019794839271e-01  1.9883060864188346e-01  2.0078209502612732e-01  3.2043267023391814e-01  3.5352678035975998e-01  3.0191271994142976e-01  1.8485584443608638e-01  2.2515511171168887e-01  2.6121727211454743e-01  2.4956112502054520e-01  2.4073799640994020e-01  2.3533654769929557e-01  2.4379596759498870e-01  2.0875859359255552e-01  2.0625766535715370e-01  3.0699821594988635e-01  1.6631637083278603e-01  2.0999717783540880e-01  2.1136432817726564e-01  2.2340214308120024e-01  1.7590196972243055e-01  1.8932300472186106e-01  1.7666590125827897e-01  1.7345507331432239e-01  2.3143034829631884e-01  2.0555479594841147e-01  3.4589273932940734e-01  3.4560572237257670e-01  2.6300549949648794e-01  2.1592282861639495e-01  1.9865242462627666e-01  2.5987068832546151e-01  1.7641422069711354e-01  1.9042941958943793e-01  2.9745735732681894e-01  2.8983727423502981e-01  1.8601326046213618e-01  2.2552183355808667e-01  2.7534020424916456e-01  3.4400967286144346e-01  2.2867703813003287e-01  2.1445697408517000e-01  1.9392575762780487e-01  4.2650683002441497e-01  4.2215258069610695e-01  4.1078825389529783e-01  2.6173034928578631e-01  1.7772102425671779e-01  2.5164730564777843e-01  3.7112864776796500e-01  1.7286890824550288e-01  2.0873819596394855e-01  2.7226818378855239e-01  2.5295305763172593e-01  2.3074850308468597e-01  1.7346191177983475e-01  2.7552903917671145e-01  2.0818301993874175e-01  1.7691287285191892e-01  3.7851487082984731e-01  3.0059991505026340e-01  2.7636980130012395e-01  1.9135232055473553e-01  1.7138245437646055e-01  2.7248438998371138e-01  2.4447944829446025e-01  3.8248907603379412e-01  2.6877303054778201e-01  1.6967571671631188e-01  3.0234189541253287e-01  3.5917387887290103e-01  3.1818869845285180e-01  2.5657748878221842e-01  3.2708405025387222e-01  3.0773096548628165e-01  3.2509030996892668e-01  1.9369232090428026e-01  2.3278890168859770e-01  4.2135591728402649e-01  3.1977681698079297e-01  3.7301697329696054e-01  3.7634411237734111e-01  3.6974717547211300e-01  3.9322842571177086e-01  3.9040814857832856e-01  1.7195720386535410e-01  1.6539353875429544e-01  2.9643645587558232e-01  3.0397559798272711e-01  2.9947795267862520e-01  3.1118134398925834e-01  4.2724873959243176e-01  2.4455627030817947e-01  1.8533925944076837e-01  3.3110274267559514e-01  2.0130287661182897e-01  1.9109047030070678e-01  1.9091585834911187e-01  2.4859399272846469e-01  2.0152309204958729e-01  3.2878328190825462e-01  2.1645498848439845e-01  2.8311868374061633e-01  2.1694179481443820e-01  2.1044893710418236e-01  4.1726950173039462e-01  4.1705355664217636e-01  2.1194282750538002e-01  2.9218238378082573e-01  1.8422619256812398e-01  4.2272799556392338e-01  2.3295074619332329e-01  1.7224893581600020e-01  3.7289160114894526e-01  3.7170492753801238e-01  2.5684391428560965e-01  2.1905566739772586e-01  2.8906719339857767e-01  3.2614364324890294e-01  1.8901013505012546e-01  4.1104719461953043e-01  1.9814422088721623e-01  2.1470524092043280e-01  3.3450081324508685e-01  2.0423534891249029e-01  4.0609396588674102e-01  2.8412594842074645e-01  2.3110813316600418e-01  2.4322709294212908e-01  2.6336906099833873e-01  2.1687198072492972e-01  2.4929499775491620e-01  2.6873928283644638e-01  3.2331133147513591e-01  2.6453580158089635e-01  2.2847434091474397e-01  1.8265741888748491e-01  1.7253816045241632e-01  2.3336556982718745e-01  3.3194063416714770e-01  2.0016892282783938e-01  1.7372899188336574e-01  3.1132629955770585e-01  1.7619223109648249e-01  1.9453241358203033e-01  1.8402014036640310e-01  1.9786978192990246e-01  1.9238584844465520e-01  1.9444835963307031e-01  2.8932770899928179e-01  1.9465789618310667e-01  1.6857788746437197e-01  2.4117203421040531e-01  2.5855362330137827e-01  1.6584163831864659e-01  1.6664779950878905e-01  1.6723532162761637e-01  3.5517019012771411e-01  3.3947741050012792e-01  3.2463027393073218e-01  1.9508764760798833e-01  3.9254657722760700e-01  3.4807151346220888e-01  2.2642075437093723e-01  2.5277038529487589e-01  1.9150449579724391e-01  4.1835464620089696e-01  2.1417073352674929e-01  1.7082240363415932e-01  3.8667620829758781e-01  2.7521004921318032e-01  4.2398341326770622e-01  4.2768260186366325e-01  1.9147112796035015e-01  1.6934559860716597e-01  1.6594845484291315e-01  1.6720492915533078e-01  3.0617131065562653e-01  1.9335294017851701e-01  4.1097665815274176e-01  1.6946576149238879e-01  1.7048781664870163e-01  1.6828782407704185e-01  2.2998547130348823e-01  2.2538749529329610e-01  2.8781669119701586e-01  2.0008946424054339e-01  2.8007218688752311e-01  2.0191917205340768e-01  3.8586008644709180e-01  3.8817269368584545e-01  3.9860245041001030e-01  1.9583597127952879e-01  3.9808300048300038e-01  3.5711201642017265e-01  4.0613313942390300e-01  2.4545342904240261e-01  3.2826755121348222e-01  3.2692931361535138e-01  2.3850205813203768e-01  3.0795344737825686e-01  2.9879072730691575e-01  2.9150330981469230e-01  3.2294977179844742e-01  3.9483457815146500e-01  4.1185267494057209e-01  1.9077636265661119e-01  2.5227313499043585e-01  2.5367569087048863e-01  2.0049864988296914e-01  3.7666358121478971e-01  1.7391521537396420e-01  3.0115764225201369e-01  2.4210643858634798e-01  3.2476196360312204e-01  3.6446744290169586e-01  2.8680794731977582e-01  2.4917035926303827e-01  2.8230532018163712e-01  3.4874966166148363e-01  3.3622319651058624e-01  2.2691744560034480e-01  1.8480032557741313e-01  3.6748112563582919e-01  2.0150016970859161e-01  1.9374797243998340e-01  3.0543376822939766e-01  2.5763092974232332e-01  3.5457823978276548e-01  2.5331017686496787e-01  3.7942797992797456e-01  1.9546205531592753e-01  2.8384182845612443e-01  2.7783467136711654e-01  2.2819670938061085e-01  2.3198367897352157e-01  2.2736010236936427e-01  2.1651069585606453e-01  2.1693018350734330e-01  2.3144757070446179e-01  3.1602206292972274e-01  2.4065856927988089e-01  2.7310016027392153e-01  3.0073581714731434e-01  2.6329288252734712e-01  2.5882271925776579e-01  2.0729519327629931e-01  2.8231012413668216e-01  2.3923122347403883e-01  2.3299774659679576e-01  2.3995303940114643e-01  2.4736851153031009e-01  2.9528443129337978e-01  2.9109370097028053e-01  2.7997359753373774e-01  3.2445554757364981e-01  2.0088713551200071e-01  2.1917449400002589e-01  2.1740759109869615e-01  2.2334959771290050e-01  2.2745053400874957e-01  2.1868487248310178e-01  2.1061930587251373e-01  2.7192677625467154e-01  2.7987414987421272e-01  1.9666722405921064e-01  1.7359063015535037e-01  2.0051323972436100e-01  2.7688509292772995e-01  3.1005460934776430e-01  3.3466395419842565e-01  2.6912902939838723e-01  2.1985756143229798e-01  3.5858271715030293e-01  2.9329145059419770e-01  2.0665644143047096e-01  3.8093038286234049e-01  2.2966831060804180e-01  2.1139496090518284e-01  2.1052173648440123e-01  1.7671987909603498e-01  2.0539490764179150e-01  1.9724639127527374e-01  3.0991982281330571e-01  2.7938516495132315e-01  2.9486540245290183e-01  3.2468991830388066e-01  2.4030860582708080e-01  2.3165174125950552e-01  2.6689417534092313e-01  1.8453105280246201e-01  3.1259480731678513e-01  2.8654310357661589e-01  3.0918597497485939e-01  3.1679591947218211e-01  2.1537086240078196e-01  1.9976617432977811e-01  2.2195545618435009e-01  1.9628983989625554e-01  2.2139517088032534e-01  1.9044419981563335e-01  1.9169033949172490e-01  2.3431824424807071e-01  2.6655904016885151e-01  1.8508589929311631e-01  2.1036775813904310e-01  2.4398878241416178e-01  2.1371813357727831e-01  2.2229077551339713e-01  2.3001283931799779e-01  2.1153028963052828e-01  3.07983588698