<?xml version="1.0"?>
<VTKFile type="UnstructuredGrid"  version="0.1"  >
<UnstructuredGrid>
<Piece  NumberOfPoints="6486" NumberOfCells="12696">
<Points>
<DataArray  type="Float64"  NumberOfComponents="3"  format="ascii">0 2.5 0  0 0 0  2.5 0 0  2.5 2.5 0  1.25 0 0  2.5 1.25 0  1.25 2.5 0  0 1.25 0  1.25 1.25 0  0 0.625 0  0.625 0 0  0.625 2.5 0  0 1.875 0  2.5 0.625 0  1.875 0 0  2.5 1.875 0  1.875 2.5 0  1.770833333333333 0.7291666666666666 0  0.7291666666666666 1.770833333333333 0  0.9375 0.625 0  1.875 1.5625 0  0.642361111111111 1.163194444444444 0  1.341594827586207 1.883979885057471 0  0.46875 0.46875 0  2.03125 2.03125 0  0.3626104797979798 1.513178661616162 0  1.381740196078431 0.4564950980392157 0  0.9375 2.172619047619047 0  2.172619047619047 0.9375 0  2.096354166666667 0.4036458333333332 0  0.4036458333333333 2.096354166666667 0  1.684027777777778 1.163194444444444 0  0.3418803418803419 0.8693910256410255 0  1.642742622813391 2.162164207604464 0  1.275619849389031 0.8465650753054845 0  0.9136284722222221 1.434461805555556 0  1.732437511238546 0.3406962303960658 0  0.9714402568595876 1.029779313093998 0  1.52281746031746 1.485615079365079 0  2.1875 1.71875 0  1.06819722569879 0.2997236128493951 0  2.136114211309524 1.303478422619048 0  0.3125 0 0  0 0.3125 0  2.5 2.1875 0  2.1875 2.5 0  0.3200021620376328 1.192323085056694 0  0.6738456129277992 0.8304377375553881 0  1.757891808928991 1.861952730357003 0  1.5625 0 0  0.9375 0 0  0.3125 2.5 0  2.1875 0 0  2.5 0.9375 0  0 0.9375 0  0 1.5625 0  0.9375 2.5 0  2.5 0.3125 0  0 2.1875 0  1.5625 2.5 0  2.5 1.5625 0  0.7448220909826522 0.3003573636608841 0  1.027298850574712 1.871151477832512 0  1.331260495098891 2.197262878816185 0  1.207917681892289 1.582765010956622 0  0.4339993447432606 1.801186844743261 0  0.6337298768939392 1.443093039772727 0  2.049851190476191 0.6826636904761904 0  0.6584821428571428 2.219122023809524 0  1.89575676467455 0.9798457973793544 0  1.437570562095628 1.059380588255917 0  1.502090052505845 0.6987070896496241 0  0.2040860661083546 1.705323965099331 0  0.2083333333333333 0.46875 0  0.5070952039991439 0.2211150679997147 0  0.6916302856529919 0.5813591430410241 0  2.265625 1.953125 0  2.2265625 2.2265625 0  1.886424081252096 2.243391360417365 0  1.40625 0.202164758520858 0  0.2269345238095238 0.2269345238095238 0  1.152730869673694 0.5225850378741401 0  1.885631899587912 1.312095130148776 0  1.614808884009367 0.9049784971014416 0  1.890095442220658 0.5126535558463003 0  2.323168682795699 0.46875 0  2.268811725689575 0.2304742875213018 0  0.6002389442105756 1.967426444210576 0  0.1768313172043011 2.03125 0  0.2311882743104251 2.269525712478698 0  2.03125 0.176831317204301 0  2.280262553344767 0.6954945504579233 0  1.979219539285994 1.809922269642997 0  2.336309523809524 1.09375 0  1.09375 2.336309523809524 0  0.9314042474388009 1.662973812215543 0  0.1634067999087722 1.40625 0  2.337090640094896 1.40625 0  1.141616997467638 2.069311773587991 0  0.46875 2.338939559681489 0  1.542440307908715 1.734944797244472 0  1.556713687786879 1.956977865354753 0  0.8264238995344066 1.975424467820646 0  1.466326331454725 1.275271369760862 0  1.655675324257095 0.5444159974393489 0  0.3385416666666666 0.6479255698005697 0  0 0.78125 0  0.5236073939200119 0.984090461540625 0  2.091665741047893 1.519793517904215 0  1.71875 2.5 0  0.5356538886262603 1.623137930505009 0  0 1.09375 0  0.1932884281517095 1.015625 0  0.8569313582417669 1.2198915584249 0  0.8876981284879677 0.8329884081524883 0  1.115618488474214 0.7219586973356271 0  1.186950366204949 1.043465130075318 0  2.057459118787237 1.110823087309335 0  1.830651283878689 2.049810069572418 0  1.689107969301489 1.367247437031697 0  0.4921048768039656 1.298643370653124 0  0.8213975694444444 2.336309523809524 0  2.03125 2.5 0  1.049729400480002 1.283723261332814 0  1.308101375801673 0.6489479469700392 0  2.5 2.34375 0  0.4968777175037714 0.7562964879736076 0  1.40625 2.5 0  1.501347663534097 2.307027627307738 0  1.602813712048603 0.1926218191360736 0  0.8393082906308107 0.463778306132633 0  1.682663349152719 1.598471865581041 0  0.7774174680851571 1.560004941327907 0  1.554204170364662 0.3898593897892066 0  1.842184459051087 0.186443880058197 0  1.358107417651776 1.696381759610015 0  1.18859291992392 1.77598670078022 0  0.1875331222687418 0.7609599743339348 0  1.339536743965101 1.422080365801479 0  0.7788179348750389 0.9955343414928611 0  0.9062978492805438 0.1919636509126373 0  1.256007360640958 0.3160320559396114 0  1.09375 0 0  1.174986727221844 0.1594990293443933 0  2.34375 1.796875 0  2.318026474511116 1.589177949022232 0  2.34375 2.5 0  1.672742954892153 2.332882724550692 0  0.2683637361947215 1.874801596909639 0  2.174770749820102 0.5581009131310781 0  1.443279522965991 0.8870068372898454 0  0.3385416666666667 0.3571428571428572 0  0.78125 0 0  2.060421048269335 2.314363248763811 0  1.088078737088509 0.8967352118723447 0  1.087825368444708 1.454931510884769 0  2.018308232129541 0.8548495425854904 0  1.943987311736842 0.3246298523011434 0  1.71875 0 0  1.85337849796276 1.144833312386208 0  2.3486328125 2.1044921875 0  1.407588788651747 2.042968789119587 0  2.336309523809524 0.865366648092144 0  2.34375 0 0  2.5 0.15625 0  0.15625 2.5 0  0 2.34375 0  0.1638044648294291 1.242263417405867 0  0.356216654757926 1.032569427322806 0  0.3188217956111817 1.355736727000647 0  0.5924956460852111 0.36112522004736 0  0.6594216488965849 0.1603472116132387 0  1.841804599497131 1.72214349266521 0  0.15625 0 0  0 0.15625 0  2.115898634821499 1.894570904464496 0  0.7821877980253907 0.7129993435924866 0  1.003820447087786 0.4516053462784233 0  0.477562948779147 1.138333049293613 0  0.719493678605015 1.305655360135975 0  0.9772457618587566 2.020350128938537 0  0.8764738248887107 1.826219722709673 0  1.254787875123819 2.339010653832026 0  2.343597354852534 1.249982759769001 0  0.78125 2.5 0  0.46875 2.5 0  2.5 1.40625 0  1.09375 2.5 0  2.5 0.78125 0  2.5 1.09375 0  2.03125 0 0  2.5 0.46875 0  1.40625 0 0  0.46875 0 0  0 0.46875 0  0 1.40625 0  0 1.71875 0  0 2.03125 0  2.5 1.71875 0  2.5 2.03125 0  2.005424054645407 1.653223486966518 0  0.1538730573856537 1.559850281736677 0  2.33984375 2.33984375 0  1.166539506212474 1.922878979538754 0  0.3914885633949916 1.65887232812171 0  0.5795503163042564 1.766243562569382 0  0.399533125920212 1.946786875081388 0  0.7866324979014098 2.127719094551316 0  0.3654683023546834 0.1495701132219454 0  0.1527388747131078 0.6116379440619215 0  2.013737577140188 1.391056634712135 0  1.17635437372994 2.213329084238133 0  1.737118141866284 1.010577140843115 0  2.200707118087222 1.164723314085963 0  1.697018908736685 1.993548551451517 0  0.5387621649009668 0.6070503962352419 0  2.032805785855952 0.5330427622570983 0  1.082699501358059 1.667818725183932 0  1.503819781540653 0.5468420196858188 0  2.015409142866072 2.175941657590429 0  1.752057611265444 0.869642097111018 0  0.612251684107783 2.356045720700959 0  1.902817102342857 0.6607642211999982 0  2.159616561739693 0.7867739969338844 0  0.5120038350106624 2.197302352398502 0  1.888200216011548 1.919501662489862 0  1.495909909726654 2.16028358757309 0  0.489139876703609 1.443203008943564 0  0.8819175670410521 0.3301172743913011 0  1.882591144370812 0.8155965192707721 0  1.133979796994841 1.172526771862882 0  2.206217447916667 2.084147135416667 0  2.20361328125 2.36279296875 0  1.395746985657004 1.556054166359645 0  1.704383111516207 1.734750450338683 0  0.9575737847222222 2.36274223823052 0  1.035150984253136 0.1302833343179028 0  1.383966125325753 0.7651479963479179 0  1.64003252158672 0.6824316405528895 0  2.22550785055421 1.487078576356817 0  1.760964431499756 1.48495222505201 0  1.276460980673788 2.004207003584658 0  0.1341477688427096 1.828777507920502 0  1.542261434180652 1.155296658359034 0  1.334627911613854 0.9696897472490321 0  1.30794231473696 1.119420615785191 0  0.7028260459857245 0.4438906910721139 0  1.625757433094055 1.84268057552138 0  0.9818707849053143 1.165603626132254 0  2.0086489901463 1.243134585689553 0  1.934584460420609 2.374094051915812 0  1.798434376789567 2.38671361912528 0  1.206314791201715 1.382064292497919 0  0.6333752893366955 0.7023738550008095 0  0.7796219811205605 1.42573253164258 0  1.564399711917382 1.026040828857629 0  0.3385416666666666 0.4889012896825397 0  0.1041666666666667 0.390625 0  0.989112246382566 1.543537365516289 0  2.025724425454636 0.9846960595520872 0  0.6602885475034063 2.086117390485779 0  1.607130551925032 1.267198646640915 0  0.1317864544877056 0.8896173683400176 0  1.755387840017567 2.230364320056445 0  1.301540702984401 0.1216289692748247 0  1.433170657577442 0.3331052752740999 0  1.500459610550388 0.113513924782439 0  0.6494291520606965 1.029586599619295 0  1.010146149868299 0.794897284196169 0  0.3700844198238017 2.235390157870766 0  0.3360891767780704 2.36656279435396 0  1.876856241037701 1.437150669863757 0  1.778674102957329 1.245979347269706 0  0.5472829890977179 0.1005517127039925 0  0.4669074189005698 0.3416784232954367 0  1.472765289289269 1.850899166481903 0  1.555853593327178 1.608452097912802 0  0.6708955559113426 1.646561631116984 0  0.8164699620322933 0.5924479455478063 0  0.3167738989468366 1.758696809749795 0  0.2788007305565096 1.605499483471246 0  0.7821720982350511 0.181524936294752 0  1.376812251214195 2.313340247908297 0  1.785652202614777 0.5962261755537186 0  1.761467296310972 0.4679567244718574 0  2.2265625 1.8359375 0  2.3828125 1.9140625 0  0.5279531607054191 2.071552361614785 0  2.397573269551114 0.234375 0  2.383578172599618 0.3589298466020009 0  0.1024267304488855 2.265625 0  0.1164218274003825 2.141070153397999 0  0.2696857594953064 2.135405441512016 0  2.164961300137334 0.1375322943529536 0  2.137757548369486 0.2724194778647587 0  2.238873711826398 0.3626419179496562 0  0.1001414910226386 0.234375 0  0.2176339285714286 0.3478422619047619 0  0.2503620791333544 0.1061694061057066 0  2.336445461915368 0.1250451055247424 0  0.2154004640409726 2.3918124
[...]
<PointData  Scalars="f_16-0"> 
<DataArray  type="Float64"  Name="f_16-0"  format="ascii">-3.1701317699527262e-52  -2.0371880339577024e-08  1.6701354321954324e-58  3.9568450218504790e-64  8.6033505640236142e-32  2.6340323308669834e-54  8.7541571248987878e-53  -8.9066623811924100e-26  1.7012609362377482e-31  -2.3247634123055070e-12  7.5596280144953804e-18  -1.3812025140127014e-52  -3.3610102527728026e-39  2.4615499438938384e-57  1.3844112549868154e-45  5.6244504727701518e-58  2.5092059076814644e-57  6.5880381113665278e-39  1.8516917611532133e-36  1.7210833806658954e-20  1.6536746349578040e-44  4.6073553482033139e-24  5.0528847574094866e-42  4.5404300743260794e-11  3.4284917005084353e-52  8.4947006552512398e-32  5.3412676277765637e-31  2.5133262128486230e-45  2.3749896293667119e-47  -1.6541109256515546e-51  -4.4277481461997490e-44  5.7185787796529892e-38  5.7962703621069612e-17  1.3749131422639669e-49  4.3021741905290858e-28  9.0445108279355065e-31  -5.2225867408552068e-42  7.1179385280082744e-25  4.0851908243134434e-38  3.1748355112793995e-51  -2.1308369152737707e-26  2.6121466491348707e-47  1.7323779167609684e-11  -2.4516042648224543e-06  1.0516423269118697e-60  8.5570276974809775e-61  4.3162338267087590e-24  1.9441902897836573e-18  1.5174586735457249e-46  7.6924246708392856e-39  6.1864247572908751e-25  -2.9723201388892950e-53  1.5373248144758946e-52  5.2974866017604900e-55  -3.2887340749398865e-19  -4.1898769178686438e-32  1.4564055903251521e-52  4.2952287565005251e-59  -7.3249233602738489e-46  1.1402622689018222e-54  1.2207357586319111e-55  1.2149046254277721e-16  1.3601643962218551e-39  9.6483198300769661e-48  5.8098381694885781e-36  6.3437936158177647e-39  2.2802179019251089e-29  8.6913492826769571e-46  4.1362229328146500e-47  2.2965471643091985e-41  2.3271116945485449e-32  1.2771597265857651e-32  -2.1122406629903132e-35  2.9929363808383313e-08  2.1454358733371093e-11  1.5793725772784220e-15  9.1542063214374274e-55  1.8734056818774103e-57  1.3307228781389630e-53  1.1785391483455899e-34  4.3236242401897231e-05  2.5697817703575456e-25  1.1167314085361643e-42  1.9892261635846841e-35  -1.0324203154004639e-43  6.0655503524401084e-55  1.9106167573360729e-54  6.1605679903478443e-41  -1.2040636186910763e-42  6.3546347310144150e-49  3.7375705275049102e-49  3.2021329681032921e-51  8.6839589985332595e-49  6.4004178260224444e-51  3.8702983327178849e-49  3.3913991467775927e-35  -4.9264968940624832e-29  9.9230903510260994e-52  3.6772383335673398e-44  -4.4087933486498802e-49  6.0555681524544410e-42  1.5140330861094923e-45  3.4143057629237762e-41  6.3466808104695561e-35  4.3859895230976955e-37  2.2032719123221889e-12  -9.9583996296120855e-16  5.3669620425865694e-20  4.7197684115284908e-48  8.7103095255067176e-56  2.9444137632796277e-33  -9.6492738579171621e-23  2.2289750845452695e-21  1.0986525762361657e-26  2.7048658244880656e-21  2.3970007462583069e-24  2.8680647179988011e-28  3.2664393280350365e-45  4.9525754654731657e-50  1.2076247002820638e-39  5.2526791906651288e-26  3.2667454683257357e-49  4.8484900556824163e-59  9.6338836749091542e-30  1.8516738815346537e-28  1.8745906222591622e-62  1.9759653736569679e-15  1.1916300361970422e-53  6.7777038165473395e-51  1.6183318667794423e-39  4.0400095978113067e-18  6.7853368417247513e-42  1.7746439465143247e-32  1.3969368508919098e-36  4.6380907067219168e-45  2.4976097269852427e-39  6.3242239162409849e-39  7.5587610080227332e-15  6.5680685018335608e-35  4.5153553536738356e-22  -1.1400474491879988e-22  7.5414906052279986e-30  2.5239670093190172e-28  9.2406924856627856e-30  1.3804777074430571e-54  1.2375755113607550e-52  1.6213416699049834e-62  1.0586355691945873e-52  -4.2124149340365322e-39  -2.2767513100560769e-50  9.1479546527073477e-32  8.2595099435663662e-08  2.2551732638272516e-21  9.7004812407346058e-57  3.6410020469735964e-25  1.0090093877451723e-32  3.5675652442696371e-44  8.5938173070425467e-47  3.6097134348498115e-42  3.0138435411113229e-41  1.1046433668036966e-57  1.4355259504168707e-45  2.4015843985965230e-51  1.7190516297660633e-55  6.1136572151842922e-59  -1.7395776539483401e-52  -2.4601092097288666e-49  -1.5717597176071072e-25  1.4849760447257369e-20  4.4374640506003390e-28  6.0934151787124760e-13  3.0369121490251064e-17  8.6699915419691339e-46  -2.3305978785955820e-08  -7.1047011336020826e-06  5.2060878157770621e-52  1.9763507405505791e-18  5.4085377338574893e-22  1.1793866558787062e-22  3.1985446763201977e-27  2.9764421471688547e-42  4.4781217426227631e-38  7.2543267461680424e-50  2.3350446449318493e-51  4.9188993238175651e-53  -2.1811689225655548e-52  9.5096429722457480e-55  2.0821053828847963e-52  1.0039017017619624e-55  2.1804127433120334e-54  6.2136608033850675e-49  -2.4864110853478997e-59  1.1410785505429630e-35  9.9077050457292462e-15  -2.6323356253376955e-09  -8.4425093716524192e-29  -1.2448553257071780e-35  -2.3380042378072900e-42  1.1006543286328265e-56  3.3157051026817369e-59  1.3031072035277907e-47  -2.0192854573232989e-32  2.8232952751824994e-60  1.3995576921324030e-41  3.2666539102488660e-35  2.0313461394216892e-36  -6.4652533827333835e-41  2.0799802272883766e-44  3.1051023991049235e-09  1.1461469890578247e-11  1.3486713870037174e-45  5.9527525114669659e-47  3.0103371215444301e-38  3.3633523118001854e-48  1.6076233656374481e-47  1.2414174235766041e-13  1.2758599753179431e-47  3.7100735518139143e-36  1.9419821664722911e-33  4.2621250924428022e-54  5.6380272976774720e-38  -4.0573130346827785e-50  3.7706420546308118e-42  6.2234033374642494e-48  -3.3936060303567203e-46  5.1923823289660718e-49  2.9607983610865343e-48  4.2327558790960168e-29  1.0367667882408372e-19  2.7502305090825367e-41  6.7386777128483954e-29  1.9821045537027437e-55  2.7428021827453588e-59  1.4482379662976310e-37  3.6855865080598581e-44  1.4482124240948428e-49  1.4316928234185990e-26  3.4843368841123387e-30  5.9320084101042348e-36  3.8552008298146935e-50  6.9524734680406189e-42  1.1218696928850723e-43  -6.3915435563653036e-38  3.4837748931387220e-35  4.9595699876920316e-30  4.4254650372325338e-31  2.9625191547895430e-15  1.7944019078427634e-44  5.1617099434721707e-27  1.5676934826651835e-44  3.5192536891460809e-56  6.1679287249520404e-55  9.5947232218967074e-33  4.4521362199064221e-16  8.2176172032698217e-30  1.2301375680490515e-34  1.4698543482781417e-09  9.8757985274806948e-07  2.7577069433481084e-33  4.0845855723657533e-44  7.9669690064653284e-44  2.9772270480610094e-37  -3.1882186148048469e-18  7.7290940939149229e-52  9.7645270493435770e-33  1.9948548088652965e-34  2.7703459812930797e-37  1.2381254614767380e-21  4.1595756443440604e-23  -9.5494147306180563e-47  -1.3116289384141337e-50  1.8437093984767574e-43  2.5857983988378151e-40  -6.6170196467150543e-15  4.7263837730972064e-10  5.6317439832925287e-43  2.0661509947581493e-40  7.6094248090875961e-34  5.5228573087313136e-18  -1.0206826415256147e-36  -2.7441406803366741e-33  -1.0688271630900338e-19  2.6898235084097099e-50  4.4266702835707383e-40  1.4410504073050509e-40  7.5142595492793934e-53  2.5385527428664995e-56  -3.6633272995598854e-44  3.2322692151551977e-57  8.4282323710462718e-57  -1.8477427702703182e-47  -6.8789614543060690e-45  -1.5376511200670876e-44  5.7297627853540327e-52  2.5341136011728315e-51  1.6880481726799828e-53  1.6603740604120027e-03  3.0812350270696159e-06  2.2769017146715035e-07  9.7599239841591148e-56  -1.7727485610904465e-50  1.4860131423659310e-46  7.4881207230663051e-06  4.8004556630746671e-42  3.5701356862060296e-23  5.5517875291940199e-26  3.3247190002064462e-28  -1.3406532770396120e-41  7.0835248871946813e-40  3.2979805084179730e-24  -1.2431387508600519e-40  5.8608639174732081e-47  6.8998880219407192e-57  2.9928148442743144e-53  1.3948577838157567e-59  3.4741233506074945e-13  2.5632320256250912e-39  8.5968520656363487e-40  1.3862183433123871e-33  3.5369039326553394e-50  5.8094678313518758e-37  -2.2862129740541994e-44  1.8191168190534036e-17  6.6546166255687107e-35  1.8292625930524359e-37  9.4994172677436710e-49  6.7456380300077297e-23  2.3190463233600044e-48  6.2191269405223117e-46  8.3884968935853248e-24  3.3019758245848099e-52  -2.8281655387575459e-14  5.5258015223310089e-26  1.3396861800178537e-49  1.9299445857962470e-50  -8.3905782383338673e-47  5.2726208490859444e-51  -3.1653371182601163e-30  -2.1081162636872329e-27  9.2100080735170161e-54  1.1721509812851419e-49  3.9188597018950473e-24  1.9771811483279726e-40  5.4971426643442655e-36  4.0658941121391075e-52  6.9948845041724270e-44  9.4287312195852766e-55  1.1204292244533756e-47  3.3445524997984712e-33  4.3504085492283633e-51  7.4913496795468349e-29  1.7547476405057092e-14  1.1925288724220821e-11  1.7393034516899478e-10  6.9362600048446665e-39  -7.2602577963790750e-34  -3.2442446515111786e-24  4.4917798844839360e-53  1.3946862724115655e-52  7.5968754943026063e-52  -1.2388016820522776e-50  2.4725452133199201e-62  3.8078745339616879e-46  5.9286955035476108e-48  1.5145147342949246e-30  7.1406483319892073e-59  -1.1659051810172347e-37  1.3964043899014840e-49  4.3013367938980578e-43  3.1345914138360443e-40  1.8859385117328568e-33  -1.7942882814103135e-30  1.7614029332670507e-08  1.7781659404260800e-55  7.0463064497519789e-40  6.5265453961532501e-27  3.0625105829917579e-27  4.3017796751658001e-53  2.1903755314178320e-19  2.3493813801584358e-20  1.0085382265271010e-19  1.7767983271740484e-23  8.7023567238139906e-44  3.2647924318622097e-28  4.0129110621554839e-38  1.3422378454762333e-34  1.0827704480184211e-41  2.0949005085594182e-44  1.0277421938583356e-49  1.8441918163337348e-32  2.6889780624429058e-28  1.3933562242993627e-13  1.4808543608787475e-46  5.3987602590850444e-18  2.1664130168290908e-22  9.9261744753890516e-54  3.1844149472718473e-36  -1.4270869229436612e-40  4.6558477368047233e-53  8.5279970282114572e-31  1.9158622434227775e-09  -3.2261195872323567e-20  5.8368529229128953e-43  4.3377763577586757e-46  4.6862367747123971e-36  2.0194662706222510e-46  9.8067952479828178e-53  1.0920258865049391e-31  2.7671875669644612e-17  5.4696933479172821e-57  7.5032912264078473e-26  4.5995834625125288e-27  5.8751426267798963e-26  8.5580830707070068e-52  1.5038819132503327e-35  1.4650983137100542e-31  1.5696853145673771e-41  1.8009055469519361e-13  3.5218274810485868e-22  -1.5046729696902240e-52  1.0723179540747273e-30  7.5553612890592104e-44  1.9150670974054546e-47  4.1674595454381837e-50  1.2968744577865908e-27  1.8030411802248945e-24  1.8585921078004172e-38  7.3142272995766838e-44  4.3884299093883827e-48  9.4599963083266070e-51  1.0585236001624837e-19  2.5419849130297855e-34  4.8460364787291565e-51  1.5989611405443562e-48  4.5918664770000648e-49  -1.5873257414578496e-31  1.0423618402578683e-41  4.5254366712444294e-35  1.6177883978556123e-46  -4.0827430543914843e-20  1.2159815057282574e-53  -9.2540246817184066e-36  1.2008580420520517e-25  4.7159088244828117e-44  5.7509816784355742e-61  3.5569988892358734e-20  3.6673472048019186e-42  1.3045533668191006e-30  1.4104947700541856e-23  6.4521524018058188e-54  2.6344956915573831e-37  -2.8025522381265566e-22  4.8970401004312829e-49  1.0702428619013077e-56  4.9286271079137857e-49  9.4872571327888485e-53  3.1747817141854070e-22  1.4401602000916258e-14  1.3989204222943776e-31  -3.6956815440007261e-16  4.6487845554068080e-41  6.5691920197027757e-35  7.2008746570862336e-27  1.1077449320927240e-50  8.0385460998053573e-50  1.1243718763688029e-27  1.9136799861179345e-47  5.5193523533249652e-19  1.5159996321213522e-35  1.8058746986297549e-12  3.3317659590377965e-47  5.4927728030566048e-17  1.9288341581147552e-19  -3.4221750140048919e-28  3.4949449885001914e-31  -1.1908741685690235e-32  4.9650716884710679e-40  6.2780119925363404e-41  1.8405401770667107e-37  2.9586229599624262e-12  -1.8669719473833670e-53  3.2469814970454116e-55  2.0550608014137951e-57  -3.4184744989295349e-48  3.7438058730984584e-24  2.9787228635245714e-55  1.3272635581247078e-16  -4.1077898497702710e-27  2.2360302780651027e-25  9.4275087023429880e-46  5.3371762424503514e-31  -1.7870238985710217e-34  4.1450444799120521e-49  1.6703041370055356e-33  1.3085365834144216e-55  4.2032902316100119e-52  1.3229648164463404e-42  6.8008981078549577e-52  -9.2342785509012108e-40  6.9911644359186339e-54  1.1015186674906720e-44  3.4601543032703422e-36  1.7863658125557880e-29  3.1345412239406840e-13  -7.0655124268373886e-59  1.2651577145725979e-56  1.9300183344239237e-50  1.4583377241517072e-24  -2.1748119437216078e-38  -3.0263421067846686e-37  1.5037247139804854e-39  1.8582169948853703e-57  2.1310492041329839e-22  3.7507414042028450e-46  1.5573803594904001e-21  8.2634107303243683e-21  1.4164061643329840e-43  -1.7752974867955010e-37  -4.7575001057580543e-42  -8.1110873633617466e-51  -1.1374246257929985e-50  1.0316875824351902e-28  1.4606616179046010e-19  7.1150324230608427e-32  3.9193956680969026e-51  2.4713685815999327e-46  3.3852257546098005e-39  3.5290165510114730e-39  5.0544303264765546e-40  7.7450189864822958e-46  -1.1147869399323693e-42  3.8588708611306689e-51  5.6194916846094649e-48  6.0123478491091999e-31  3.4734387246652344e-56  1.6508504045861639e-45  8.7446828682134304e-46  1.0407533095523525e-42  2.0748508786202185e-56  1.1951352573537701e-54  1.7004465682367050e-55  1.4293900642660151e-58  1.4706906033063083e-45  1.2595929509068633e-49  4.7026017821127430e-22  4.0423801647611179e-22  3.4563348002129575e-36  4.2030097234756567e-51  1.9890602037295065e-54  1.2225555137296888e-38  2.5602935727105493e-59  4.7713310518957507e-57  8.5117906450361815e-30  1.1919617855063420e-31  3.4914544066516339e-55  -1.6658511579190021e-46  2.1334809362401922e-36  2.7175511779321077e-20  1.8881887413050950e-47  4.4327241859451716e-48  1.0898828666022807e-53  1.8570578049990275e-06  8.9915718733995744e-08  1.9309404509768863e-09  6.6866992672206507e-40  1.4353606643691691e-57  9.8792610192665580e-43  -1.3691287616652851e-17  6.0719097770922373e-55  -5.7593360105317443e-49  2.2332696869779106e-37  6.9103075950392715e-38  3.6763191909843663e-47  4.8226184223781449e-61  5.8750558848700921e-39  1.6758646667560479e-53  2.9456636888518848e-58  5.3150796464001329e-16  3.5727635212066626e-31  1.4957316402950470e-38  1.4493603477273906e-49  2.6625262862924279e-53  9.9091994809403277e-37  4.4889152130508576e-46  -1.0146427238046858e-13  2.9553867343337777e-34  1.3450492828087346e-58  6.9727007540640086e-33  1.1233878810663797e-19  9.3078459813003762e-28  2.6464092583775754e-43  8.8497754292748785e-26  1.3000508272133960e-29  5.4617304177992759e-24  4.1586072062715369e-50  7.0561905005854667e-41  6.8314977108081784e-07  -5.1234005551637075e-28  6.3686418369011545e-15  -4.4411328851853041e-17  2.7628596795616901e-16  6.9640085708232225e-12  1.1535987752211946e-12  1.1878196393501064e-52  2.0120605715779048e-54  2.2893416017598097e-34  4.7049171916002732e-32  5.6201418262198557e-31  9.9576496149751229e-30  5.9296223333701687e-05  1.3786322013594080e-45  2.9102452209913589e-50  1.9900335631401761e-26  2.6790987546283379e-53  5.5524641085139151e-53  3.0632080785187789e-56  1.1946650487118457e-43  1.0915455393114675e-55  1.3796792875353043e-24  2.5706418334500166e-50  8.5733920480604864e-32  5.8893410283926727e-49  9.5117143568006835e-50  -1.3924004697399879e-08  2.4996676179978181e-06  2.7292493443615141e-52  8.3346347963744070e-34  7.8873284019467774e-59  5.9753829432997977e-04  -4.1757433755778173e-44  3.4200081563154052e-58  8.9424375755937618e-17  1.2691580195526606e-17  4.3378582116508821e-37  1.0378892166532294e-47  6.8107484968816099e-34  4.0005517499404870e-24  6.3387889751286106e-58  1.3802144945902965e-10  6.3411297507529459e-53  8.3240105443357897e-49  -1.7118294854513641e-24  1.0573395456844531e-46  7.0401615877036215e-11  -4.2204883788199284e-35  6.9110427632510399e-45  1.2278202040493503e-42  6.3463756292045274e-39  3.6269378421894108e-52  3.7444673251657175e-42  1.1763397674620998e-39  2.6394023336873284e-28  3.1699864513149101e-41  4.2363501997129757e-45  1.5435122187190869e-51  5.7515514654767107e-53  -1.8875627796992156e-44  -1.0289591049604284e-25  2.2691894723630623e-52  2.5740728155290964e-54  3.5758465581044490e-30  6.9179345495260794e-62  1.3432703267327066e-52  8.2212319134963501e-60  -7.1970696295939094e-51  -2.6533301525979455e-52  2.5210723037454025e-53  -9.2692137098620712e-34  -1.5905341484271547e-53  5.2973409108321842e-56  4.4726663546779050e-44  1.2783090692818390e-40  2.7912387423281209e-54  1.3145299641173330e-54  4.5509866405290367e-55  -5.7453959807214687e-21  -2.9480541772819522e-24  -3.0591092892195872e-27  1.5526849963625119e-52  -6.4142860166543564e-14  3.8765434162603908e-23  3.6329702396654222e-47  -9.7139627794590741e-41  -1.6438294630743237e-52  -2.6148929032089400e-10  -1.4083528438567871e-47  4.6848056356555389e-59  4.0090878638094328e-16  3.7980278952352766e-37  2.3639905306329646e-05  -7.0120924356222285e-08  1.3097396891256118e-56  1.4886308570376856e-61  2.7457433496567942e-63  1.5379132780274587e-63  -1.4126011859587777e-30  2.5697383341809641e-54  -6.1852348978723923e-11  2.9772021439949686e-57  8.1207937279542355e-60  3.9647317824379678e-59  3.3174596252773562e-42  3.2224964385154355e-47  7.5795524028464336e-35  4.3410058469432051e-51  2.2868523000896533e-32  2.2151988122218357e-51  4.3877342958980183e-14  9.5543318382436395e-15  3.5121760678117935e-12  1.0042219361628224e-52  -8.2025600588345547e-15  4.0448646301182112e-21  -9.8793220426123958e-13  -3.3105785593540964e-42  1.1671737626654896e-26  2.2845479497994510e-23  1.0759164829290530e-43  -1.3495184538878258e-30  -4.6595555296475144e-32  -1.2486283589707592e-33  -2.5407991897127542e-27  3.4349409822425707e-13  7.3411596372082418e-10  3.2890873069614923e-49  2.5244896101895140e-44  6.7244320730457987e-41  7.3495656948909435e-48  5.0910472521644019e-17  2.3969264368926460e-53  -8.7556356518448420e-32  3.1943767454641785e-43  6.7726689613933719e-28  1.1570426509644188e-18  1.9886613082015894e-36  1.3361564215532605e-41  2.3619560372869474e-32  1.0490947764271515e-22  9.2200838051593175e-26  -9.0272184740415889e-46  2.4700215793824457e-50  8.1014717164721650e-19  2.0431843469517833e-47  1.7709951974703013e-49  4.1089890542431228e-31  1.6048479957785453e-37  2.4948810442911566e-19  3.1668800190155526e-40  1.4544242781057733e-14  9.4110775303381811e-52  1.7840802608632319e-34  1.2773679169936193e-35  2.3115966744885822e-48  5.6715207351765465e-44  3.5264897352654036e-44  3.9755633578856245e-47  9.9927996117117146e-46  4.8570332502598212e-45  -5.7197129782155246e-29  2.6661550770959838e-44  2.4521462293427080e-37  1.2344915761394336e-28  -2.5236586085235355e-39  -7.6406790435857116e-40  2.1938376677405738e-51  3.2668106639631022e-33  2.7103737145425335e-40  9.2007622566858936e-42  -3.3452722984348712e-43  8.9623384215431608e-43  -8.0744847012495867e-34  1.2414966695511576e-33  1.5801973698456456e-36  9.2234258264972312e-27  9.7718603996358317e-52  1.2478133089771915e-47  2.4864616748199926e-48  -2.5972570843350247e-47  -8.2639990951075598e-46  -2.1699180354884195e-47  9.4950695043129295e-52  1.9318901656065271e-38  -1.3828969356180957e-35  5.2882525398788229e-51  3.5517420749138904e-53  8.3411514038414141e-49  6.7397904031389022e-37  1.5768318963986629e-29  -6.9126575170441899e-26  3.6592520887330457e-38  1.5661716311080220e-48  8.4331973064458920e-20  5.2740473455798492e-33  2.5397101210279786e-53  7.1837356826431700e-16  5.7192170013477506e-46  1.7652089071696758e-53  1.2677352601294035e-53  1.7267261718860594e-57  2.6998217639544115e-47  -9.2792942619085326e-52  2.1596918098332257e-29  2.4688348057860983e-38  2.5115691196912073e-33  4.8042158704888287e-26  7.6395413075553251e-47  6.1252169402265667e-49  7.8935245636371015e-38  3.0985862917164885e-55  2.5359513930451259e-26  5.7984100791176134e-36  3.1092924194107254e-29  9.9373743549192458e-28  -2.1392088171684470e-49  -2.5658413972345974e-51  6.1857110160922564e-45  -2.5243000158690651e-52  9.3113770039492847e-44  9.2455609725598534e-55  5.8988503561447501e-58  -1.8830482717904935e-44  7.0715256462802774e-39  2.6872180345244357e-59  1.1930332270522860e-