<?xml version="1.0"?>
<VTKFile type="UnstructuredGrid"  version="0.1"  >
<UnstructuredGrid>
<Piece  NumberOfPoints="6486" NumberOfCells="12696">
<Points>
<DataArray  type="Float64"  NumberOfComponents="3"  format="ascii">0 5 0  0 0 0  5 0 0  5 5 0  2.5 0 0  5 2.5 0  2.5 5 0  0 2.5 0  2.5 2.5 0  0 1.25 0  1.25 0 0  1.25 5 0  0 3.75 0  5 1.25 0  3.75 0 0  5 3.75 0  3.75 5 0  3.541666666666667 1.458333333333333 0  1.458333333333333 3.541666666666667 0  1.875 1.25 0  3.75 3.125 0  1.284722222222222 2.326388888888889 0  2.683189655172414 3.767959770114943 0  0.9375 0.9375 0  4.0625 4.0625 0  0.7252209595959597 3.026357323232324 0  2.763480392156863 0.9129901960784315 0  1.875 4.345238095238095 0  4.345238095238095 1.875 0  4.192708333333333 0.8072916666666664 0  0.8072916666666665 4.192708333333334 0  3.368055555555555 2.326388888888889 0  0.6837606837606839 1.738782051282051 0  3.285485245626782 4.324328415208927 0  2.551239698778062 1.693130150610969 0  1.827256944444444 2.868923611111111 0  3.464875022477093 0.6813924607921316 0  1.942880513719175 2.059558626187995 0  3.04563492063492 2.971230158730159 0  4.375 3.4375 0  2.13639445139758 0.5994472256987903 0  4.272228422619047 2.606956845238095 0  0.625 0 0  0 0.625 0  5 4.375 0  4.375 5 0  0.6400043240752655 2.384646170113389 0  1.347691225855598 1.660875475110776 0  3.515783617857982 3.723905460714006 0  3.125 0 0  1.875 0 0  0.625 5 0  4.375 0 0  5 1.875 0  0 1.875 0  0 3.125 0  1.875 5 0  5 0.625 0  0 4.375 0  3.125 5 0  5 3.125 0  1.489644181965304 0.6007147273217681 0  2.054597701149425 3.742302955665024 0  2.662520990197781 4.39452575763237 0  2.415835363784578 3.165530021913244 0  0.8679986894865213 3.602373689486522 0  1.267459753787878 2.886186079545454 0  4.099702380952381 1.365327380952381 0  1.316964285714286 4.438244047619047 0  3.7915135293491 1.959691594758709 0  2.875141124191255 2.118761176511833 0  3.00418010501169 1.397414179299248 0  0.4081721322167092 3.410647930198662 0  0.4166666666666666 0.9375 0  1.014190407998288 0.4422301359994293 0  1.383260571305984 1.162718286082048 0  4.53125 3.90625 0  4.453125 4.453125 0  3.772848162504192 4.48678272083473 0  2.8125 0.404329517041716 0  0.4538690476190476 0.4538690476190476 0  2.305461739347387 1.04517007574828 0  3.771263799175824 2.624190260297553 0  3.229617768018734 1.809956994202883 0  3.780190884441317 1.025307111692601 0  4.646337365591398 0.9375 0  4.537623451379149 0.4609485750426037 0  1.200477888421151 3.934852888421152 0  0.3536626344086022 4.0625 0  0.4623765486208503 4.539051424957397 0  4.0625 0.353662634408602 0  4.560525106689535 1.390989100915847 0  3.958439078571988 3.619844539285994 0  4.672619047619047 2.1875 0  2.1875 4.672619047619047 0  1.862808494877602 3.325947624431087 0  0.3268135998175443 2.8125 0  4.674181280189791 2.8125 0  2.283233994935276 4.138623547175983 0  0.9375 4.677879119362977 0  3.08488061581743 3.469889594488945 0  3.113427375573758 3.913955730709506 0  1.652847799068813 3.950848935641292 0  2.932652662909449 2.550542739521724 0  3.311350648514189 1.088831994878698 0  0.6770833333333333 1.295851139601139 0  0 1.5625 0  1.047214787840024 1.96818092308125 0  4.183331482095785 3.03958703580843 0  3.4375 5 0  1.071307777252521 3.246275861010018 0  0 2.1875 0  0.386576856303419 2.03125 0  1.713862716483534 2.439783116849799 0  1.775396256975935 1.665976816304977 0  2.231236976948428 1.443917394671254 0  2.373900732409897 2.086930260150635 0  4.114918237574474 2.221646174618671 0  3.661302567757379 4.099620139144836 0  3.378215938602977 2.734494874063393 0  0.9842097536079312 2.597286741306247 0  1.642795138888889 4.672619047619047 0  4.0625 5 0  2.099458800960004 2.567446522665629 0  2.616202751603346 1.297895893940078 0  5 4.6875 0  0.9937554350075428 1.512592975947215 0  2.8125 5 0  3.002695327068194 4.614055254615477 0  3.205627424097207 0.3852436382721472 0  1.678616581261621 0.927556612265266 0  3.365326698305438 3.196943731162083 0  1.554834936170314 3.120009882655813 0  3.108408340729323 0.7797187795784133 0  3.684368918102174 0.3728877601163941 0  2.716214835303553 3.39276351922003 0  2.37718583984784 3.551973401560441 0  0.3750662445374837 1.52191994866787 0  2.679073487930202 2.844160731602957 0  1.557635869750078 1.991068682985722 0  1.812595698561088 0.3839273018252746 0  2.512014721281916 0.6320641118792227 0  2.1875 0 0  2.349973454443689 0.3189980586887866 0  4.6875 3.59375 0  4.636052949022233 3.178355898044465 0  4.6875 5 0  3.345485909784306 4.665765449101383 0  0.536727472389443 3.749603193819277 0  4.349541499640203 1.116201826262156 0  2.886559045931982 1.774013674579691 0  0.6770833333333334 0.7142857142857143 0  1.5625 0 0  4.120842096538671 4.628726497527622 0  2.176157474177018 1.793470423744689 0  2.175650736889416 2.909863021769539 0  4.036616464259081 1.709699085170981 0  3.887974623473683 0.6492597046022868 0  3.4375 0 0  3.70675699592552 2.289666624772415 0  4.697265625 4.208984375 0  2.815177577303495 4.085937578239174 0  4.672619047619047 1.730733296184288 0  4.6875 0 0  5 0.3125 0  0.3125 5 0  0 4.6875 0  0.3276089296588581 2.484526834811734 0  0.712433309515852 2.065138854645612 0  0.6376435912223634 2.711473454001295 0  1.184991292170422 0.7222504400947201 0  1.31884329779317 0.3206944232264773 0  3.683609198994263 3.44428698533042 0  0.3125 0 0  0 0.3125 0  4.231797269642997 3.789141808928991 0  1.564375596050781 1.425998687184973 0  2.007640894175573 0.9032106925568466 0  0.955125897558294 2.276666098587227 0  1.43898735721003 2.611310720271951 0  1.954491523717513 4.040700257877075 0  1.752947649777421 3.652439445419346 0  2.509575750247638 4.678021307664052 0  4.687194709705067 2.499965519538002 0  1.5625 5 0  0.9375 5 0  5 2.8125 0  2.1875 5 0  5 1.5625 0  5 2.1875 0  4.0625 0 0  5 0.9375 0  2.8125 0 0  0.9375 0 0  0 0.9375 0  0 2.8125 0  0 3.4375 0  0 4.0625 0  5 3.4375 0  5 4.0625 0  4.010848109290813 3.306446973933037 0  0.3077461147713075 3.119700563473354 0  4.6796875 4.6796875 0  2.333079012424948 3.845757959077508 0  0.7829771267899832 3.317744656243421 0  1.159100632608513 3.532487125138763 0  0.799066251840424 3.893573750162776 0  1.57326499580282 4.255438189102632 0  0.7309366047093668 0.2991402264438908 0  0.3054777494262156 1.223275888123843 0  4.027475154280377 2.78211326942427 0  2.35270874745988 4.426658168476266 0  3.474236283732569 2.021154281686229 0  4.401414236174444 2.329446628171927 0  3.39403781747337 3.987097102903034 0  1.077524329801934 1.214100792470484 0  4.065611571711903 1.066085524514197 0  2.165399002716117 3.335637450367864 0  3.007639563081306 1.093684039371638 0  4.030818285732145 4.351883315180857 0  3.504115222530889 1.739284194222036 0  1.224503368215566 4.712091441401919 0  3.805634204685714 1.321528442399996 0  4.319233123479386 1.573547993867769 0  1.024007670021325 4.394604704797005 0  3.776400432023095 3.839003324979723 0  2.991819819453308 4.320567175146181 0  0.9782797534072181 2.886406017887129 0  1.763835134082104 0.6602345487826022 0  3.765182288741625 1.631193038541544 0  2.267959593989681 2.345053543725764 0  4.412434895833333 4.168294270833333 0  4.4072265625 4.7255859375 0  2.791493971314009 3.11210833271929 0  3.408766223032414 3.469500900677365 0  1.915147569444444 4.725484476461039 0  2.070301968506271 0.2605666686358055 0  2.767932250651506 1.530295992695836 0  3.280065043173439 1.364863281105779 0  4.45101570110842 2.974157152713635 0  3.521928862999512 2.96990445010402 0  2.552921961347576 4.008414007169315 0  0.2682955376854191 3.657555015841003 0  3.084522868361304 2.310593316718068 0  2.669255823227708 1.939379494498064 0  2.615884629473921 2.238841231570381 0  1.405652091971449 0.8877813821442277 0  3.25151486618811 3.68536115104276 0  1.963741569810629 2.331207252264507 0  4.017297980292599 2.486269171379106 0  3.869168920841219 4.748188103831625 0  3.596868753579134 4.77342723825056 0  2.41262958240343 2.764128584995838 0  1.266750578673391 1.404747710001619 0  1.559243962241121 2.85146506328516 0  3.128799423834764 2.052081657715259 0  0.6770833333333333 0.9778025793650794 0  0.2083333333333333 0.78125 0  1.978224492765132 3.087074731032578 0  4.051448850909273 1.969392119104174 0  1.320577095006813 4.172234780971559 0  3.214261103850064 2.534397293281829 0  0.2635729089754111 1.779234736680035 0  3.510775680035133 4.460728640112889 0  2.603081405968802 0.2432579385496493 0  2.866341315154884 0.6662105505481998 0  3.000919221100777 0.2270278495648781 0  1.298858304121393 2.05917319923859 0  2.020292299736597 1.589794568392338 0  0.7401688396476035 4.470780315741533 0  0.6721783535561408 4.733125588707921 0  3.753712482075402 2.874301339727514 0  3.557348205914658 2.491958694539413 0  1.094565978195436 0.2011034254079851 0  0.9338148378011396 0.6833568465908735 0  2.945530578578538 3.701798332963805 0  3.111707186654356 3.216904195825605 0  1.341791111822685 3.293123262233967 0  1.632939924064587 1.184895891095613 0  0.6335477978936732 3.517393619499591 0  0.5576014611130192 3.210998966942492 0  1.564344196470102 0.3630498725895039 0  2.75362450242839 4.626680495816594 0  3.571304405229554 1.192452351107437 0  3.522934592621944 0.9359134489437148 0  4.453125 3.671875 0  4.765625 3.828125 0  1.055906321410838 4.14310472322957 0  4.795146539102229 0.46875 0  4.767156345199235 0.7178596932040019 0  0.2048534608977711 4.53125 0  0.232843654800765 4.282140306795998 0  0.5393715189906129 4.270810883024032 0  4.329922600274667 0.2750645887059072 0  4.275515096738972 0.5448389557295173 0  4.477747423652795 0.7252838358993123 0  0.2002829820452772 0.46875 0  0.4352678571428572 0.6956845238095237 0  0.5007241582667088 0.2123388122114133 0  4.672890923830735 0.2500902110494848 0  0.4308009280819452 4.783624996516437 0  2.104871305393774 4.438653689007242 0  0.2274454167838428 0.2274454167838428 0  3.446466574593436 0.4359605369011901 0  2.12354112127588 1.217588426759619 0  2.309175236825235 0.7888355970690434 0  2.556178570281936 1.054299163237582 0  0.578683248637
[...]
<PointData  Scalars="f_16-0"> 
<DataArray  type="Float64"  Name="f_16-0"  format="ascii">9.9654896606164854e-47  -1.5683090867817051e-01  -5.3867660478723054e-43  -1.6810745334438843e-69  -8.2823012734253457e-19  -6.0378818694481319e-54  -4.4864139000459421e-53  1.9334615416692276e-21  3.3746028864413727e-29  2.6781819342848047e-08  1.4706012350653902e-10  8.1924499105456360e-51  -4.1088181243465741e-34  1.7422785566984186e-48  -2.3136444329555807e-30  3.8698978713219236e-61  3.1344911897419281e-60  2.6152077135926681e-35  -5.4163881084108419e-34  -1.7841966229311994e-17  1.8648534160210119e-44  -4.6106138692149625e-20  8.3232997144365697e-42  3.2682032098753877e-10  5.5420023505797037e-57  3.0061512235658048e-27  1.9418741725269661e-25  3.4666000050179297e-43  4.6135055095310978e-46  1.0897364989306534e-38  -9.8140083651062252e-42  -3.6064719699553420e-36  3.4878827138108046e-13  1.2889994005293118e-50  2.3385029288591946e-26  -4.1006844326739852e-27  1.8922417168958893e-31  -9.6072454668507075e-23  -5.4860200909626945e-37  -1.7417057526490086e-51  -6.6388221419848631e-19  -4.4111963180192702e-46  1.2994494222074301e-05  3.2638346447786189e-02  -4.2805490431874244e-65  -2.4068794986342473e-64  -1.6179202401724346e-19  -1.9362765890164796e-15  -5.2300046608122411e-47  1.3936376243477821e-23  -2.3730576238155549e-15  1.7407999188575623e-49  2.4347377261437133e-36  1.8870860998376288e-52  7.1363564104972314e-15  -1.0012129026128303e-27  -3.5136302477412313e-50  2.7862382801094344e-44  -6.1014599263661879e-40  -1.0835420571691164e-56  4.3034461775458602e-56  -2.8754812309707267e-14  -6.6817130109791980e-38  -3.5512954162445346e-48  6.7529558066004793e-34  -3.7616013805972580e-34  -9.2245765178934545e-26  2.9620364980484233e-41  2.8150915626353302e-44  -4.6179725286682221e-41  1.8676709381905226e-31  5.9915186751367703e-31  1.8919723819793869e-32  -3.6268420772393164e-05  -1.8867094510260289e-09  -7.1620712232882700e-13  4.7327223375217696e-58  4.9500049954456551e-61  3.6297248452060065e-55  -1.4488850937816388e-24  7.3472568197663389e-05  -4.0481829877387307e-22  -1.2495817856110354e-41  8.4656160351593715e-33  -1.1822380473156690e-36  1.7613183584750576e-42  -1.0539597184298773e-43  9.2954239483813055e-40  5.9674017402943450e-40  -1.2355290712119653e-43  4.3156302061569071e-35  7.0532434118019120e-46  -4.8132195973728052e-51  -1.3222630117373012e-48  2.1966652060552008e-48  3.1741699949029027e-32  -3.4962553525614727e-25  -5.2113272309224345e-52  -1.0144386525515388e-43  2.8287619927914221e-47  -3.0397484769185624e-42  -5.8823125643882117e-46  9.9609712805367029e-38  -1.0851176274024720e-34  3.8539263294722852e-32  2.4171583267306044e-09  1.2351838201590179e-12  1.4035831844472151e-16  5.0040750020015374e-48  -1.4791443422314600e-58  -2.3721513648081333e-30  -1.3652990232945815e-17  2.2920723191360819e-15  2.5605605563373422e-23  1.4264764086818714e-18  1.1659910469567326e-22  -6.3337472845614745e-26  2.2060943261910723e-43  -9.3526129280338006e-51  1.4164616944946301e-38  2.9463203405626681e-23  4.0015799600406808e-46  3.2928988742988431e-61  -3.3812796106644818e-26  -9.1908993548655635e-27  -1.4306439502007353e-68  1.7435598525170735e-13  4.1459664235870549e-55  2.1857519547562972e-51  9.6544707040017188e-27  -6.9864819980555457e-15  -7.5775205346866978e-42  1.0422306180128929e-28  7.3983783870851323e-29  -1.1751770775340964e-30  5.5802415367652193e-38  3.4526527385632128e-38  -3.0301600049380989e-10  9.6288298542693333e-34  8.4926377740038564e-19  6.4931615940076801e-16  -1.1522420148245480e-21  3.8816756666470992e-18  1.4260819313350009e-20  4.9813048761311991e-56  9.4591533311431599e-54  -1.1188933641103269e-68  1.9177218139535265e-55  -1.0644940503054622e-36  -4.8597740144532633e-44  8.6988412825606126e-29  1.7982724889438337e-06  7.2848053660779145e-13  -1.4457322927100018e-59  -8.3410735290466076e-22  2.0801623438060491e-29  -2.5724396326386472e-42  -3.4825314640828753e-34  3.4787087749180521e-27  -3.7242367819389919e-38  9.6435000954793708e-61  2.7243818682358612e-45  4.2819743974533598e-49  1.4433043161245420e-39  9.7123990925957391e-44  -1.0249156790023511e-46  1.6293720505344433e-43  -1.2528125913595184e-20  -4.0119530136542835e-17  3.2260663180784720e-23  1.2283776763429059e-10  1.6503607847385810e-13  -9.4386609658113932e-46  -9.5211942583385105e-03  -2.7360390057013420e+00  -1.2864388924539419e-53  2.4603155620089322e-15  -4.0683193875733579e-18  -5.4685843765548394e-20  3.5517768237165087e-23  -2.8196112367788209e-41  -5.1102489762585496e-35  2.1420929590155261e-50  1.4230124345100035e-50  -6.5832340448007732e-50  2.1626268133829257e-51  -3.4068819770307627e-55  5.7019427728576341e-53  -4.4722844868755942e-51  1.1179820272681796e-53  -2.0777422217618221e-33  6.0325479707173958e-46  5.3258620414782284e-21  1.4714590962734746e-07  -9.2405040706866460e-05  -3.5466348475040235e-24  -3.4896784194767078e-30  1.4773188115702713e-37  -2.5980043914671102e-58  -1.9293361040728818e-63  -1.9008572044625374e-47  -4.4470286284614753e-30  1.1689844258626498e-64  1.3356181476861321e-40  -5.7780851074808718e-31  -2.4569490990683130e-34  -1.8048945224320711e-37  -3.1097905548745438e-42  5.3334224594535005e-06  -3.2352128258845657e-07  -2.5306915637811962e-46  -2.8323124500438615e-47  -2.3706835994280753e-35  -6.1012867670556103e-45  1.1405180530479122e-48  1.3505419614452911e-11  5.6720859946702331e-39  5.4057738182086782e-34  6.8322678837781948e-28  -2.6528784318898950e-56  -5.8715636707716346e-38  -1.7676267433557949e-47  -7.2665794836172259e-39  3.7145988587985745e-44  -3.4191312461338812e-43  8.2075297006892428e-50  -2.8373549788676285e-48  -2.1211811314209987e-26  -8.8463070536375068e-16  6.3553965833978407e-39  -3.9923903738519023e-26  -9.7543707469133811e-59  8.8521254726478098e-62  -1.2231319801661988e-36  -1.7442860665506293e-44  -8.0301733104374039e-48  1.2242451401775210e-18  -3.8856360353754245e-27  -5.0252700326308670e-33  1.8349787223417721e-49  -1.8656663356737585e-41  -2.9439335781098389e-43  7.8194825011337345e-36  -1.3804149582586825e-33  6.8815891899633537e-30  3.3690348226817139e-29  -1.8943543920300296e-12  6.8417852890787106e-44  5.3761477852473058e-23  4.4632522367935644e-42  -9.1080310451372286e-58  -9.4326689288603919e-57  2.1838001792050743e-30  1.3229809047817217e-13  -8.3692342672709104e-27  -2.0809361938857617e-32  6.8800541578674537e-08  -1.9684544510674526e-04  4.1577101808087180e-30  2.7880952400670988e-43  -2.1411929368781070e-41  -5.3519293154574331e-36  -2.3645483346809080e-13  -9.5923967494500660e-54  -3.0511738395747038e-21  4.1311961741739530e-26  -4.5616144149539697e-25  -2.1711101148044764e-18  -2.4695614464537922e-21  -1.8423716090542788e-43  8.9672013179702517e-47  1.7579886496164860e-42  -1.6827954788210924e-38  3.4684520714011135e-09  7.0082928970570133e-10  1.3793789148359764e-42  -1.7659882824021543e-39  -8.3891893297732191e-31  -1.3681225495669897e-14  -8.0817498849827771e-34  -1.3966650208938669e-29  1.7801656984441016e-13  -5.0934647517167691e-50  3.8564168145635469e-36  1.5106809658178859e-34  -5.5482852599571901e-55  -5.5597587707234856e-59  5.7454937730652524e-42  6.5475479222011044e-42  -5.0819020808069421e-43  5.2555290992331734e-42  1.3749084636697443e-40  2.0945763263253893e-41  -2.9567695279821735e-37  -1.2769054615018819e-39  2.7328840733103674e-39  -3.8045733785785929e-01  1.5384570646125893e-05  4.0807308920528078e-03  -7.0480375407598660e-40  1.1993727325907344e-46  -6.3155377497360437e-47  -8.4943159256921885e-01  8.7753040763658978e-30  2.9971727485695517e-20  -1.4410960251463859e-20  2.5320611058037750e-25  8.1292216453900300e-40  -1.1287853135917759e-39  3.3308214630283358e-21  1.6503258717414268e-36  -1.3484507995296277e-32  -3.0254881571367068e-46  4.3186502128239377e-50  -4.4329699612174908e-64  4.1874767664399351e-11  -1.0852655365488042e-36  3.0032443301648614e-37  5.0437677931082578e-32  -1.4157855532267836e-51  3.6412689387775830e-37  -2.5744995070423739e-34  -2.0092744137910494e-15  -2.4345671917375906e-31  2.3573845718475784e-35  1.8707268693067741e-42  -2.9853311838716697e-14  -2.1195568492464689e-48  -2.9409993634828747e-45  1.5270702251617210e-18  -6.6113687109441925e-51  -3.7625894045069735e-10  -3.1237737881834610e-23  1.1860184098131402e-51  -1.7669091096954915e-52  2.0709686909247466e-36  -9.1707246797966124e-52  5.4603239410858413e-26  -2.3558612447394902e-23  8.1954064371258817e-54  -6.5042509733987022e-49  -2.0464315569236817e-20  3.8369726300177172e-27  6.8072742921059917e-34  1.0138139360874866e-53  -2.9335759752072250e-29  -2.8491702094284965e-56  -4.2281173194646860e-50  1.0248087601637429e-31  -2.7872206803648474e-48  1.3760577884171883e-26  -2.2474052809197957e-12  -1.0953838332434789e-08  -5.3232958852476660e-07  -4.3329361455039429e-32  1.1998213717091524e-29  -4.2651934343135715e-19  -1.7682450867916282e-53  6.6662921641211647e-52  5.7463439848331007e-52  -5.8731078862313799e-45  -1.4572647006107868e-68  -8.8269586073205281e-46  -2.0740925850122233e-47  3.5824581904305216e-27  3.7150032637897228e-62  5.2996742604005744e-28  2.2011909045085407e-50  -2.9982476654042396e-40  -4.4389202528013410e-38  1.2037310020090644e-32  1.1161630507379126e-25  -1.4000979277968558e-07  1.9117170595696926e-59  2.9817595978337004e-39  1.1812791939540680e-25  8.3492727703566442e-27  -4.6645185253585303e-53  -7.4651076044083743e-17  8.1189965539217293e-17  -2.9530890248547348e-16  -9.9546544410795755e-21  6.7637567749186224e-42  -3.6382226972126969e-25  3.6480698718964108e-36  2.8798876530271978e-32  2.6640470736901858e-41  -3.0014929292978180e-43  -2.3512467168729222e-48  -3.1902941010002477e-30  9.6268295095664504e-22  1.4750222137551091e-11  9.3778562761022804e-44  9.2886191296387443e-14  9.9620168072796490e-20  -1.3326610736824508e-55  -3.1298176063238123e-35  1.3864629808277830e-29  -6.2809713307368302e-54  7.7788127289070354e-27  4.0410444816146679e-06  1.2516598852649830e-16  1.3808183305940911e-42  8.4296664030598204e-46  -1.0393054338999788e-33  -1.3401821855521330e-43  1.7782451630047588e-53  -3.4740268958341779e-29  1.0401721771396542e-14  3.7293938517200452e-41  -3.1999099703433184e-23  -3.1527249224965834e-25  4.1172073470761313e-24  -1.5885570871530788e-41  5.1341325687436295e-33  6.9609039621117029e-29  5.0169769293239081e-40  8.2046946316731126e-11  9.1414182288137881e-19  -3.4304722748979524e-50  -1.2653612545660182e-27  2.1646445703829713e-43  -8.9373610370429036e-50  -4.9317253143269476e-51  -1.0399498913534383e-25  -5.5591358320581926e-21  -4.3731407807073646e-36  1.0386580958194528e-43  1.6853476920847227e-50  8.6882930948226233e-53  -6.0314366470184845e-12  1.6456952891796049e-30  5.6326105456176014e-48  1.0198229387952432e-45  -1.7541681971647822e-35  9.2586249275121954e-22  5.8902129410308223e-39  1.8774297001390796e-22  1.7099408939979607e-47  -3.0194307390645332e-12  -2.8638856857933252e-44  -3.2876036553570897e-33  1.0570434691548757e-24  -2.6818199944826404e-33  4.6771977927607394e-65  -3.3301475956045511e-19  -1.6953203080316506e-42  1.6861653642167841e-29  4.9304699391646656e-16  2.8409560400507148e-39  -8.0720070115519818e-35  4.1590571944869765e-17  -7.9791766415896974e-50  -7.2218948034004707e-60  4.4921253819390779e-48  -8.0062310817466220e-51  -6.0165908219180984e-20  6.7782682294900585e-12  4.9100690396050383e-29  -5.5095256481914742e-13  -5.0953164895750263e-42  4.6167631578467134e-30  -3.8308200694843803e-21  -9.9576558664564774e-35  2.6610832821088842e-35  3.8364920299635208e-25  1.1898160392174284e-46  -3.2332643851031451e-15  -1.0280984795585147e-28  -1.5691193119842672e-08  -3.4971102816960943e-33  1.2490722168735191e-13  2.0416743650896947e-16  -6.4406285789861346e-20  3.7407234474387696e-24  2.0161002739315613e-23  2.4913923194696806e-38  3.6899671521062810e-40  2.2689828749021841e-36  -8.6684629558810005e-08  -4.4072020576334361e-50  -1.2703179865010984e-57  4.6720027922805745e-60  -6.0435178617190126e-46  3.2663016621766723e-22  -7.6403960725216042e-57  -6.2392091247182946e-14  -7.2843740062134351e-18  -1.3550590022371581e-21  -5.0710847383525478e-43  1.3481849918749090e-27  -2.6380437865188053e-26  7.1979114193258429e-50  5.5678962563649358e-32  -9.5602822728277447e-53  -1.6181930427627683e-51  -1.6812525315029585e-40  -1.0364159774985446e-52  6.8944891708774664e-37  2.5514091708559542e-57  -8.1032188443247790e-40  -7.5989868729800535e-34  -1.1905748248456663e-28  -3.9878875934253487e-07  -7.6229764111982486e-46  -3.1957150045690758e-44  -6.1855390159166747e-49  -1.1227269866735058e-15  4.4360313348725942e-36  -3.1753827748729726e-35  -4.9625511020742345e-37  3.3288119370523594e-60  -2.3586476425838499e-17  1.9551590062247627e-44  -3.6455473700283977e-18  -1.4831893248033844e-17  -3.6171678620290269e-41  -2.8727363451609003e-32  -4.3933351613664892e-39  8.9542829854460498e-50  -5.3677151051400713e-48  -3.6987139624841723e-18  -3.1450016981757962e-14  1.5570595696569530e-30  -2.1176409685052802e-47  7.5177631626582101e-44  -1.0036001078319277e-36  -5.5177846044681723e-37  -7.4411304478757747e-38  -4.3674866904435946e-46  -3.3059220022166411e-37  -1.7575661341529566e-53  2.7812252224251575e-41  -1.3916146123760470e-20  -3.4632314898634897e-49  7.0503960212633238e-45  -9.5469619225628851e-42  4.1507949175635700e-42  1.7662837350644198e-59  -7.3608716763760832e-57  2.8616982586204120e-56  4.6888195360502491e-43  3.0938311891563368e-45  5.7787522781574521e-39  1.4677747964902918e-18  1.5944342101218018e-18  -2.3444112905073605e-35  9.0197105516586396e-53  -2.2570357892320491e-58  4.0606881561220170e-37  -1.4285122534199125e-62  8.9581358071890515e-62  -8.5527237569768202e-27  -1.4587735510443912e-29  -7.5775186216951928e-42  -1.2830787927995189e-41  1.2600580069095053e-34  3.5717312236199959e-17  7.7937810279755563e-48  -9.4713041761914002e-47  -1.9608585661520881e-39  -1.2040880541280598e-05  7.4915522699073557e-08  -1.2033752148578780e-08  -1.2509633990631033e-38  -1.3239443518067470e-42  1.5162340428008815e-42  1.1551318134008390e-13  1.8279044922467247e-50  6.2603099126704555e-45  4.7680975853421239e-26  -5.6314524640464333e-33  8.9846591613398993e-46  -8.8044791292020777e-68  1.6028136890705756e-37  -1.9315473634893852e-56  8.3887678623376190e-62  -1.4687111971908206e-11  -6.4641692594639830e-27  3.7077165750810475e-37  -1.5673232414864153e-47  2.3963077849829765e-51  -9.2632021420992356e-34  -6.2738755851415617e-47  -5.1204280233534809e-10  -5.5263486727116395e-32  1.0598587863590785e-61  -1.5666944865586168e-30  -3.1658376352570628e-15  3.7520052503095651e-24  -6.7495203729162580e-44  -7.1967131076384983e-23  -1.2291418742476436e-27  1.3130555258202897e-19  -4.5214234150268052e-49  3.0161819728334672e-39  2.5841140593769068e-05  -1.8603092005512598e-23  2.7214502569739485e-12  -2.3063364984496369e-10  3.5301276943645824e-13  1.1619270238075073e-09  -1.5009203962794414e-09  2.1476232316628308e-50  -1.2306704796468287e-52  -5.6162446670529918e-32  5.0073925686391047e-29  2.7248892836583322e-29  -4.3128012949603046e-25  -2.0872593973071279e-03  4.7610304045006132e-47  7.2332985335173738e-49  1.0867144683352348e-16  -8.9305426248098743e-56  -4.2475353785388934e-43  1.6621229982664650e-58  4.8612581003925470e-42  -1.3185393585316761e-58  9.3626975717575487e-22  -2.1401416978142793e-51  2.2323177701124454e-30  -3.5904085083841713e-49  1.9236556258534279e-49  -1.2159201771728170e-01  -1.1393273691923251e+02  -8.9891525591319162e-55  8.5407237928057709e-20  -3.6250198682113505e-64  -8.0535458573629030e-04  2.1341196227672526e-39  -7.7075405432277465e-44  -5.5273686371680846e-14  1.6762215226160079e-15  -7.3418083872915223e-35  -2.4185028775819826e-47  9.7273564945828454e-31  -3.8934907628171042e-19  -2.9663807529568367e-61  9.6646515461910253e-05  9.5870906984762687e-38  -8.2334646310476853e-37  5.8624901494089905e-17  5.5114386080951368e-48  -2.9322538786314369e-08  9.8438458849652632e-32  8.1015459973348254e-43  1.2222531385895303e-39  6.6072695217681071e-37  3.0548199646548642e-54  -1.8281572191747073e-28  -1.1676054020736900e-38  3.3101154534202049e-24  4.3879762769327759e-40  4.7655484265978628e-45  -8.6316052298407628e-50  -1.5591031495187680e-51  -2.7250617784434225e-40  6.5333134938309590e-21  -2.4495855878440932e-53  -1.2086140325015664e-53  -1.6463926604966681e-18  -4.1378507336984446e-65  -3.3057358745420210e-49  -3.8916655300808492e-63  -3.4568143862649210e-45  -4.0249229082058619e-48  7.1611923750889088e-53  -1.8956868476565941e-29  2.4907141336246333e-50  6.0756228088493136e-58  3.3030344382941949e-28  -2.6344472096823411e-25  3.5138319691289160e-53  -2.9225228220769602e-53  4.3039094185987685e-56  -1.1228252680150310e-17  6.0374774425680548e-18  2.1067668348514462e-22  9.4963800346798885e-54  -5.3857110760902250e-11  5.9430124855260888e-14  2.5850534029467508e-31  4.9588107031343741e-35  -9.3063891585842136e-49  3.9875447735187599e-04  5.0841984995238192e-42  -7.2751671872105810e-44  -1.5902819242846263e-09  -7.0928640956893953e-23  -9.1044381205863800e-01  -1.7310150069018444e-03  -1.1485728862099616e-59  9.8827605677424219e-69  -3.3202783607325146e-70  -2.9653243307766273e-68  -1.1715604957994940e-25  1.0859015269240187e-54  -2.2528061001158093e-06  1.2126117125436971e-60  7.0197606942546276e-65  1.1537990397198949e-45  -7.5154322275643246e-38  -1.2705393157074668e-47  -2.2298647613795662e-32  -7.7369342158898561e-49  -2.0509255452173587e-29  4.1606563092423557e-51  -1.4762220604938221e-11  -5.3012098515688811e-11  1.3147345600576927e-10  3.8876746043763042e-54  2.9483289368467448e-07  -1.6325944543687834e-18  1.6943107144300751e-08  2.1191627556265535e-40  2.1694513142757484e-23  -4.0160614930380221e-21  3.2417619563508051e-42  -8.4848496861884448e-27  -1.1801291138391452e-27  2.5068657743997367e-30  2.6149739105062607e-23  -3.1012599032742212e-09  1.2368837270445475e-06  -2.8573557650253844e-47  1.5885297790627745e-44  2.1424039744885928e-39  -3.3530278595086696e-45  2.2315209988730198e-13  2.2241368104045555e-53  -3.3237593509215058e-28  1.9227833658219128e-42  4.9639017502228798e-25  -9.6210291790896567e-16  1.6220174106155505e-35  1.6744937138910489e-39  -5.6028414237774137e-27  3.4903071174453767e-21  1.2966159396922334e-21  -2.7316365357780769e-35  -4.3881433633977202e-49  -4.7043990513265886e-15  -2.4783911121120080e-45  7.2179637161823854e-45  -3.7984374653936280e-28  -5.6946633893024767e-35  2.3861438270450350e-15  3.0848920805263905e-39  1.6387406680512298e-12  -6.0888681535033412e-53  9.0472029209398337e-32  8.3964090369899488e-33  6.9828500864689835e-49  -1.3506541457719230e-43  -4.0114495763317859e-44  4.5261516247784011e-46  1.2864319899207960e-45  2.9513427768604341e-42  2.1871164613051043e-24  -2.4965599845727661e-43  2.8070068968654344e-34  2.5138924917525875e-25  -5.1989799275588750e-36  -2.4865408724115302e-37  3.8730086475880116e-52  8.0814245926420924e-32  -1.9505867503165183e-36  -2.5278149033578090e-36  -3.1214295232100066e-41  4.8531602771573496e-42  -3.7749641456110616e-29  2.6945112075284635e-31  -7.4581122932302024e-33  2.0126676277502225e-24  -8.5602941276822291e-39  -2.1057175983663950e-48  -5.4478709762450511e-50  -3.0337510220878977e-44  6.7902744048747274e-42  -1.7873207585507224e-44  -2.5118139729594804e-52  1.0593226466947978e-37  -1.0109206709857918e-25  -9.3433869448327716e-52  1.1402294819594420e-50  -9.3618201770785620e-48  -9.8638714170585111e-34  7.0023577116575894e-26  2.2044840331143894e-20  1.9915178526677788e-38  -3.7340475630992008e-34  -3.0831487988288997e-17  -3.5240336646206258e-23  -1.0855389465583068e-55  8.7797044055893677e-14  6.8783962451136841e-33  -1.6926353946897071e-55  -2.9155973029444151e-55  2.0364210463456686e-61  2.1071928619077003e-42  1.9592280147731248e-48  4.9217493954154959e-26  -1.5699274487624140e-37  1.5499077410840066e-32  8.8172178359440823e-23  -4.6516006539903737e-47  -7.5089681184177201e-49  3.5382152286331258e-35  -1.1980653078325112e-40  -3.3069438404605321e-22  7.3615892944671715e-34  -6.8891984256456064e-26  -7.