<?xml version="1.0"?>
<VTKFile type="UnstructuredGrid"  version="0.1"  >
<UnstructuredGrid>
<Piece  NumberOfPoints="6486" NumberOfCells="12696">
<Points>
<DataArray  type="Float64"  NumberOfComponents="3"  format="ascii">0 5 0  0 0 0  5 0 0  5 5 0  2.5 0 0  5 2.5 0  2.5 5 0  0 2.5 0  2.5 2.5 0  0 1.25 0  1.25 0 0  1.25 5 0  0 3.75 0  5 1.25 0  3.75 0 0  5 3.75 0  3.75 5 0  3.541666666666667 1.458333333333333 0  1.458333333333333 3.541666666666667 0  1.875 1.25 0  3.75 3.125 0  1.284722222222222 2.326388888888889 0  2.683189655172414 3.767959770114943 0  0.9375 0.9375 0  4.0625 4.0625 0  0.7252209595959597 3.026357323232324 0  2.763480392156863 0.9129901960784315 0  1.875 4.345238095238095 0  4.345238095238095 1.875 0  4.192708333333333 0.8072916666666664 0  0.8072916666666665 4.192708333333334 0  3.368055555555555 2.326388888888889 0  0.6837606837606839 1.738782051282051 0  3.285485245626782 4.324328415208927 0  2.551239698778062 1.693130150610969 0  1.827256944444444 2.868923611111111 0  3.464875022477093 0.6813924607921316 0  1.942880513719175 2.059558626187995 0  3.04563492063492 2.971230158730159 0  4.375 3.4375 0  2.13639445139758 0.5994472256987903 0  4.272228422619047 2.606956845238095 0  0.625 0 0  0 0.625 0  5 4.375 0  4.375 5 0  0.6400043240752655 2.384646170113389 0  1.347691225855598 1.660875475110776 0  3.515783617857982 3.723905460714006 0  3.125 0 0  1.875 0 0  0.625 5 0  4.375 0 0  5 1.875 0  0 1.875 0  0 3.125 0  1.875 5 0  5 0.625 0  0 4.375 0  3.125 5 0  5 3.125 0  1.489644181965304 0.6007147273217681 0  2.054597701149425 3.742302955665024 0  2.662520990197781 4.39452575763237 0  2.415835363784578 3.165530021913244 0  0.8679986894865213 3.602373689486522 0  1.267459753787878 2.886186079545454 0  4.099702380952381 1.365327380952381 0  1.316964285714286 4.438244047619047 0  3.7915135293491 1.959691594758709 0  2.875141124191255 2.118761176511833 0  3.00418010501169 1.397414179299248 0  0.4081721322167092 3.410647930198662 0  0.4166666666666666 0.9375 0  1.014190407998288 0.4422301359994293 0  1.383260571305984 1.162718286082048 0  4.53125 3.90625 0  4.453125 4.453125 0  3.772848162504192 4.48678272083473 0  2.8125 0.404329517041716 0  0.4538690476190476 0.4538690476190476 0  2.305461739347387 1.04517007574828 0  3.771263799175824 2.624190260297553 0  3.229617768018734 1.809956994202883 0  3.780190884441317 1.025307111692601 0  4.646337365591398 0.9375 0  4.537623451379149 0.4609485750426037 0  1.200477888421151 3.934852888421152 0  0.3536626344086022 4.0625 0  0.4623765486208503 4.539051424957397 0  4.0625 0.353662634408602 0  4.560525106689535 1.390989100915847 0  3.958439078571988 3.619844539285994 0  4.672619047619047 2.1875 0  2.1875 4.672619047619047 0  1.862808494877602 3.325947624431087 0  0.3268135998175443 2.8125 0  4.674181280189791 2.8125 0  2.283233994935276 4.138623547175983 0  0.9375 4.677879119362977 0  3.08488061581743 3.469889594488945 0  3.113427375573758 3.913955730709506 0  1.652847799068813 3.950848935641292 0  2.932652662909449 2.550542739521724 0  3.311350648514189 1.088831994878698 0  0.6770833333333333 1.295851139601139 0  0 1.5625 0  1.047214787840024 1.96818092308125 0  4.183331482095785 3.03958703580843 0  3.4375 5 0  1.071307777252521 3.246275861010018 0  0 2.1875 0  0.386576856303419 2.03125 0  1.713862716483534 2.439783116849799 0  1.775396256975935 1.665976816304977 0  2.231236976948428 1.443917394671254 0  2.373900732409897 2.086930260150635 0  4.114918237574474 2.221646174618671 0  3.661302567757379 4.099620139144836 0  3.378215938602977 2.734494874063393 0  0.9842097536079312 2.597286741306247 0  1.642795138888889 4.672619047619047 0  4.0625 5 0  2.099458800960004 2.567446522665629 0  2.616202751603346 1.297895893940078 0  5 4.6875 0  0.9937554350075428 1.512592975947215 0  2.8125 5 0  3.002695327068194 4.614055254615477 0  3.205627424097207 0.3852436382721472 0  1.678616581261621 0.927556612265266 0  3.365326698305438 3.196943731162083 0  1.554834936170314 3.120009882655813 0  3.108408340729323 0.7797187795784133 0  3.684368918102174 0.3728877601163941 0  2.716214835303553 3.39276351922003 0  2.37718583984784 3.551973401560441 0  0.3750662445374837 1.52191994866787 0  2.679073487930202 2.844160731602957 0  1.557635869750078 1.991068682985722 0  1.812595698561088 0.3839273018252746 0  2.512014721281916 0.6320641118792227 0  2.1875 0 0  2.349973454443689 0.3189980586887866 0  4.6875 3.59375 0  4.636052949022233 3.178355898044465 0  4.6875 5 0  3.345485909784306 4.665765449101383 0  0.536727472389443 3.749603193819277 0  4.349541499640203 1.116201826262156 0  2.886559045931982 1.774013674579691 0  0.6770833333333334 0.7142857142857143 0  1.5625 0 0  4.120842096538671 4.628726497527622 0  2.176157474177018 1.793470423744689 0  2.175650736889416 2.909863021769539 0  4.036616464259081 1.709699085170981 0  3.887974623473683 0.6492597046022868 0  3.4375 0 0  3.70675699592552 2.289666624772415 0  4.697265625 4.208984375 0  2.815177577303495 4.085937578239174 0  4.672619047619047 1.730733296184288 0  4.6875 0 0  5 0.3125 0  0.3125 5 0  0 4.6875 0  0.3276089296588581 2.484526834811734 0  0.712433309515852 2.065138854645612 0  0.6376435912223634 2.711473454001295 0  1.184991292170422 0.7222504400947201 0  1.31884329779317 0.3206944232264773 0  3.683609198994263 3.44428698533042 0  0.3125 0 0  0 0.3125 0  4.231797269642997 3.789141808928991 0  1.564375596050781 1.425998687184973 0  2.007640894175573 0.9032106925568466 0  0.955125897558294 2.276666098587227 0  1.43898735721003 2.611310720271951 0  1.954491523717513 4.040700257877075 0  1.752947649777421 3.652439445419346 0  2.509575750247638 4.678021307664052 0  4.687194709705067 2.499965519538002 0  1.5625 5 0  0.9375 5 0  5 2.8125 0  2.1875 5 0  5 1.5625 0  5 2.1875 0  4.0625 0 0  5 0.9375 0  2.8125 0 0  0.9375 0 0  0 0.9375 0  0 2.8125 0  0 3.4375 0  0 4.0625 0  5 3.4375 0  5 4.0625 0  4.010848109290813 3.306446973933037 0  0.3077461147713075 3.119700563473354 0  4.6796875 4.6796875 0  2.333079012424948 3.845757959077508 0  0.7829771267899832 3.317744656243421 0  1.159100632608513 3.532487125138763 0  0.799066251840424 3.893573750162776 0  1.57326499580282 4.255438189102632 0  0.7309366047093668 0.2991402264438908 0  0.3054777494262156 1.223275888123843 0  4.027475154280377 2.78211326942427 0  2.35270874745988 4.426658168476266 0  3.474236283732569 2.021154281686229 0  4.401414236174444 2.329446628171927 0  3.39403781747337 3.987097102903034 0  1.077524329801934 1.214100792470484 0  4.065611571711903 1.066085524514197 0  2.165399002716117 3.335637450367864 0  3.007639563081306 1.093684039371638 0  4.030818285732145 4.351883315180857 0  3.504115222530889 1.739284194222036 0  1.224503368215566 4.712091441401919 0  3.805634204685714 1.321528442399996 0  4.319233123479386 1.573547993867769 0  1.024007670021325 4.394604704797005 0  3.776400432023095 3.839003324979723 0  2.991819819453308 4.320567175146181 0  0.9782797534072181 2.886406017887129 0  1.763835134082104 0.6602345487826022 0  3.765182288741625 1.631193038541544 0  2.267959593989681 2.345053543725764 0  4.412434895833333 4.168294270833333 0  4.4072265625 4.7255859375 0  2.791493971314009 3.11210833271929 0  3.408766223032414 3.469500900677365 0  1.915147569444444 4.725484476461039 0  2.070301968506271 0.2605666686358055 0  2.767932250651506 1.530295992695836 0  3.280065043173439 1.364863281105779 0  4.45101570110842 2.974157152713635 0  3.521928862999512 2.96990445010402 0  2.552921961347576 4.008414007169315 0  0.2682955376854191 3.657555015841003 0  3.084522868361304 2.310593316718068 0  2.669255823227708 1.939379494498064 0  2.615884629473921 2.238841231570381 0  1.405652091971449 0.8877813821442277 0  3.25151486618811 3.68536115104276 0  1.963741569810629 2.331207252264507 0  4.017297980292599 2.486269171379106 0  3.869168920841219 4.748188103831625 0  3.596868753579134 4.77342723825056 0  2.41262958240343 2.764128584995838 0  1.266750578673391 1.404747710001619 0  1.559243962241121 2.85146506328516 0  3.128799423834764 2.052081657715259 0  0.6770833333333333 0.9778025793650794 0  0.2083333333333333 0.78125 0  1.978224492765132 3.087074731032578 0  4.051448850909273 1.969392119104174 0  1.320577095006813 4.172234780971559 0  3.214261103850064 2.534397293281829 0  0.2635729089754111 1.779234736680035 0  3.510775680035133 4.460728640112889 0  2.603081405968802 0.2432579385496493 0  2.866341315154884 0.6662105505481998 0  3.000919221100777 0.2270278495648781 0  1.298858304121393 2.05917319923859 0  2.020292299736597 1.589794568392338 0  0.7401688396476035 4.470780315741533 0  0.6721783535561408 4.733125588707921 0  3.753712482075402 2.874301339727514 0  3.557348205914658 2.491958694539413 0  1.094565978195436 0.2011034254079851 0  0.9338148378011396 0.6833568465908735 0  2.945530578578538 3.701798332963805 0  3.111707186654356 3.216904195825605 0  1.341791111822685 3.293123262233967 0  1.632939924064587 1.184895891095613 0  0.6335477978936732 3.517393619499591 0  0.5576014611130192 3.210998966942492 0  1.564344196470102 0.3630498725895039 0  2.75362450242839 4.626680495816594 0  3.571304405229554 1.192452351107437 0  3.522934592621944 0.9359134489437148 0  4.453125 3.671875 0  4.765625 3.828125 0  1.055906321410838 4.14310472322957 0  4.795146539102229 0.46875 0  4.767156345199235 0.7178596932040019 0  0.2048534608977711 4.53125 0  0.232843654800765 4.282140306795998 0  0.5393715189906129 4.270810883024032 0  4.329922600274667 0.2750645887059072 0  4.275515096738972 0.5448389557295173 0  4.477747423652795 0.7252838358993123 0  0.2002829820452772 0.46875 0  0.4352678571428572 0.6956845238095237 0  0.5007241582667088 0.2123388122114133 0  4.672890923830735 0.2500902110494848 0  0.4308009280819452 4.783624996516437 0  2.104871305393774 4.438653689007242 0  0.2274454167838428 0.2274454167838428 0  3.446466574593436 0.4359605369011901 0  2.12354112127588 1.217588426759619 0  2.309175236825235 0.7888355970690434 0  2.556178570281936 1.054299163237582 0  0.578683248637
[...]
<PointData  Scalars="f_10845-0"> 
<DataArray  type="Float64"  Name="f_10845-0"  format="ascii">-5.8978716708454485e+01  -6.5608922971469408e-01  -5.0561463084516263e-02  -3.0270478735566483e-02  -3.3737711916873880e-01  -4.5164657932565799e-02  -7.4876783608077941e+00  -4.3782774977777060e+06  -3.2187265178121793e-01  5.2188981675821813e+00  -4.9753743837907161e-01  -2.0769195814911729e+01  -1.2988297753616096e+04  -4.7995564791544577e-02  -1.7941710519006651e-01  -4.2982045619040850e-02  -4.2403527595983419e-02  -2.0198626525840885e-01  -5.5254529779328311e+02  -4.1672134619646606e-01  -1.7657730507484234e-01  -3.3389835377684068e-01  -1.7269670736434753e-01  -5.2732164029310524e-01  -1.2127804645646303e-01  -7.5412576089784692e+04  -3.0153304098611805e-01  -1.9224310929130127e+02  -1.0695047298489357e-01  -1.2440525303514688e-01  -1.3802871215397556e+03  -2.2523516704894664e-01  -2.2196237670930194e-01  -1.0621647485967177e-01  -3.2956227077752703e-01  -2.8657502878048707e-01  -2.1304779454054226e-01  -3.8500434401935002e-01  -2.5538647021057709e-01  -1.0213936055928291e-01  -3.8307657388121752e-01  -1.1388499177646742e-01  -5.7791282490855478e-01  -5.7539272569941846e-01  -4.1705491492525913e-02  -4.0337048763726110e-02  5.5054619899349314e+02  -4.3944285009173206e-01  -1.7207925272971847e-01  -2.5565653045298453e-01  -4.1557990915245219e-01  -3.7957781649269137e+01  -1.0656530438702344e-01  -4.5795979780903689e-02  1.5823070176008638e+04  -2.5970161161678380e+05  -1.7665311462534145e+01  -4.9353077568955704e-02  -9.7383254424308984e+02  -9.8041769534123663e-02  -4.3533189479876014e-02  -4.6622374643965642e-01  -9.0188574333863625e-02  -1.5905379698671673e-01  -2.4875870225313240e-01  -1.7649615146774544e+04  2.7861824264422306e+00  -1.3498753832255680e-01  -3.1442936117829572e+02  -1.7160744064825967e-01  -2.8799313821124728e-01  -2.7145726430465728e-01  -5.6410867792640034e+04  -5.3357544556577452e-01  -5.2768012744151771e-01  -4.7854912770198793e-01  -8.4886572675542241e-02  -7.6828688330701292e-02  -8.7258823471069030e-02  -2.9639001996678849e-01  -5.9239352118725264e-01  -3.6165624921190942e-01  -1.7470233918831368e-01  -2.4310293197435159e-01  -1.7380475246008725e-01  -7.7883147009420978e-02  -8.9413853397218065e-02  -3.1220542219516169e+03  -2.6190273308515170e+03  -2.4748128702024775e+02  -1.4109326416046686e-01  -8.4110927450430847e-02  -1.4800990347129492e-01  -7.2894012616323431e-02  -3.6052427489619355e+01  -2.1800270338694569e-01  -7.7682701887265360e+05  -7.1116694322509819e-02  -1.5715220989295648e+00  -1.1025917908353073e+02  -2.0735871098317007e-01  -1.5451215970225485e-01  -6.0839411505047019e+02  -2.7948701800559966e-01  -2.3129193671859552e-01  -4.8761477949082138e-01  3.4081147993007937e+02  -4.4701545470329140e-01  -1.2480479647201133e-01  -4.3797492068082013e-02  -6.7095706940119435e+03  -6.0045010592919316e+04  -5.9158412487960061e+02  -3.3950715575523310e-01  -4.2360758990428032e-01  -3.7071877673638270e-01  -3.5101260689897384e-01  -1.3172661923266862e-01  -1.2948894928192337e-01  -2.2367207995151131e-01  1.9902940681702248e+01  -8.6238321793865239e+01  -4.1446841597680556e-02  -3.2443075956067452e-01  -3.2196078051369020e-01  -3.8109914240056220e-02  -4.6036292193571970e-01  -1.2175689821001270e+00  -7.7814009230902911e-02  -2.4602247887730969e-01  -4.4195189077300256e-01  -2.1896348223582349e-01  1.9137435473741687e-01  -2.5798301739947327e-01  -1.8505022742563454e-01  -2.1931487032348351e-01  -1.9969880953070976e-01  -6.3516486371697498e+00  -2.8383818839247715e-01  -3.9911271791600905e-01  -4.2477245278193293e-01  -3.3372973620703261e-01  -3.7535110739948557e-01  -3.5413705087640052e-01  -6.9580996076824900e-02  -7.4736887530471294e-02  -3.7327127782972723e-02  -7.0593773811578622e-02  -1.0595781352831429e+04  -1.0636436469004802e-01  -2.8729788583109617e-01  -5.5839456567222012e-01  -4.5755256276652251e-01  -7.1267528879106881e-02  -3.7772600808577311e-01  -2.8124454003074706e-01  -1.4148572568738349e-01  -1.5992392258356922e-01  -2.1683759246766535e-01  -1.8242882027886995e-01  -6.6428050115674125e-02  -1.3482662083329888e-01  -7.3168684936221973e-02  -7.5879143163634463e-02  -5.0193224354296302e-02  -5.0846619928635853e+01  -2.2400118874728332e+02  -2.1817265002318942e+04  1.3440774937220732e+00  -2.0479297995601673e+03  -5.0577698084765188e-01  -4.8827591180071522e-01  -1.8038579032340638e-01  -6.1831080231215507e-01  -6.1441360718539317e-01  -1.1643813754137379e-01  -4.5233778728896229e-01  -3.9967597236552577e-01  -5.2520794101732502e+00  -1.7279167682071112e-01  -5.4330153762597142e+01  -1.5057755145544178e+01  -5.3672551857538577e+00  -7.0368260685937781e-02  -2.1702920294045263e+01  -2.4818059411275875e+01  -4.4260622524484504e-02  -1.3827019716944370e+01  -4.6620206806344620e-02  -4.5508187628448160e-02  -1.4160069630433128e-01  -4.9024430257346853e-02  -2.9635634728276716e-01  -5.3729261524098215e-01  -8.3836552210687421e-01  -1.1252934128398146e+06  -5.8947547971204207e+04  -2.6919569019486808e+03  -4.3353094275680112e-02  -4.2404715464028429e-02  -1.4456260010865704e-01  -2.2578585554178854e+05  -5.4794855737700390e-02  -1.3769120031281917e-01  -5.7998115294767187e+04  -8.7899024313957016e+03  -5.0598808611923278e+03  -5.5589878051397670e+02  -5.6403439795829247e-01  -2.7443623455280997e-01  -1.4308320939345495e-01  -7.1767853235552872e+00  -2.1180073299959534e-01  -9.9071181034511471e-02  -1.4435037752073715e-01  -4.9548720538032109e-01  -1.3887450405557322e-01  -2.2607790123958887e-01  -2.7020010134363753e-01  -9.8492756833515438e-02  -2.0734265034335114e-01  -9.7847111866714570e+01  -1.7049546083554706e-01  -1.0981064529862548e-01  -4.7094435103544663e+02  -1.5204339183230772e-01  -1.0680325558026053e-01  3.0502234428633841e+02  -4.3109567553490602e-01  -1.7406901898054716e-01  -3.4622018631191320e-01  -9.1931876407223848e-02  -5.9607959673429134e-02  -2.5254154103493742e-01  -1.9904411110906320e-01  -5.5053857185666857e+01  -3.9103519462699332e-01  -3.0207532319845964e-01  -2.3550452744840036e-01  -9.3995037697244821e-02  -2.0499640520785858e-01  -1.4193374868988867e-01  -1.8401713429226143e+04  -2.6124143180655934e-01  -3.1444191189180670e-01  -3.2081425269274344e-01  -4.7715777649031815e-01  -1.8056061079471525e-01  -3.5385592806472432e-01  -1.4405434005786211e-01  -6.1862386395742000e-02  -6.0466433002489696e-02  -2.9782700092477971e-01  -4.7072560457360318e-01  -4.7794484566885442e-01  -2.5590177246427409e-01  -5.2793359855532362e-01  -5.4878209107535258e-01  -2.6016045061603604e-01  -1.3943299841208900e-01  -1.0272159169479100e+03  -2.4454259548711543e-01  -2.4077219062185634e+02  -9.0841243690085227e-02  -3.2315056355921506e-01  -2.8810026250227344e-01  -2.7222682141499965e-01  -3.8654069251023709e-01  -3.9791063100299384e-01  -3.1949422782825991e+02  -9.1015485146424055e+01  -1.7627309807799782e-01  -2.0151032283611017e-01  -5.1716974873846611e-01  -5.3767831156305745e-01  -1.8060663305034028e-01  -2.3361687169256315e-01  -4.2255655575068005e+01  -4.4791977136047589e-01  -3.0578563607040171e+04  -1.2678306528406468e+05  -4.5689246288550717e-01  -3.4540816714177919e-01  -1.9920491596334039e-01  -2.0625509407959106e-01  -9.3257222831022737e-02  -6.2074623708557319e-02  -1.3942868759683713e+03  -6.5332965880327915e-02  -6.7851525964561829e-02  -4.1429695951118543e+02  -9.0169360866036300e+02  -9.0539122724036929e+02  -1.1123982388183995e-01  -1.1665653614678088e-01  -9.4855999358598619e-02  -5.9464741594559023e-01  -5.6418544781520441e-01  -5.9398485314142069e-01  -7.6855747584809939e-02  -1.1261624327819762e+02  -5.9716406266552973e+01  -6.2310492087155955e-01  -2.1490377324527585e-01  -3.8460230879806584e-01  -3.6114378520360907e-01  -3.2961281792799546e-01  -3.7433007044992059e+03  -2.3366200189017053e-01  -3.6416811059702892e-01  -6.5422525891659097e+03  -1.6476876971811211e-01  -6.8037094389893610e-02  -6.4866518590703720e-02  -5.7752831589080449e-02  -5.0548256940912961e-01  -2.0473871729001721e+03  -6.9647639797709890e+03  -2.6290405768627001e-01  -1.0384596565130641e-01  -2.5964371273330900e-01  -1.8534059299057393e-01  -4.2478431834144115e-01  3.4287512715728536e+00  4.8684969193520618e-02  -1.0781351351470823e-01  -4.3726144279016810e-01  -9.4776900844395592e-02  -1.8731265460363533e-01  2.7852573175293105e+03  -6.4161653619185383e-02  6.4102063676502361e+00  -1.1524502188855291e-01  -1.2772988183543918e-01  -1.3722376618187773e-01  -1.4980332876333827e-01  -1.5532932386081068e+01  -2.6013384285191077e+05  -1.8572715521500378e+06  -5.6292230365970732e-02  -8.8167888091812877e-02  -3.7968315524057750e-01  -2.3596222380189250e-01  -2.3082074248254270e-01  -1.1026196450513251e-01  -1.9698695245391493e-01  -5.6098148717539598e-02  -1.3026455683287988e-01  -2.9465323470025190e-01  -5.8512512873232509e+01  -3.1656647916702707e-01  -5.5840014602044408e-01  -5.0711580945747636e-01  -4.9743331309634475e-01  -2.3220681802933624e-01  -1.1660128272648015e+05  2.6001761286261168e+05  -5.6792820572934277e-02  -5.8034709468324876e-02  -2.7202764777513910e+00  -1.1902519926800396e+02  -4.2106548091326496e-02  -1.4978086490574358e-01  -1.1366163215421836e-01  -2.9974492723711005e-01  -5.2195675680599810e-02  -2.6436519888684668e-01  -1.2017517412292637e-01  -3.7317573220819878e+02  -5.0600180049258789e+01  -3.0085803101826375e-01  -5.1914757107639837e+05  -5.5722408313722516e-01  -9.3154501341917870e-02  -2.2621636596482128e-01  -3.6646826318850084e-01  -3.4974851838130705e-01  -1.6480177925542405e-01  -4.1634455089086425e-01  -4.2846793702297803e-01  -4.3813140247854243e-01  -4.0154000375153687e-01  -1.5304421473381546e-01  -3.0497695023001847e-01  -1.9612775847617345e-01  -2.5392582597527513e-01  -3.6722619294158143e-01  -5.2502814406816690e+01  -8.4661609321720580e-02  -2.3052026757541766e-01  -3.3403729941393961e-01  -5.0129929126058947e-01  -2.2157785541885733e+02  9.8347342514648961e+00  -4.0909326429672060e-01  -1.0355910468599824e-01  -2.7523811090988115e-01  -2.3745212944960334e-01  -7.9220907949646521e-02  -2.9953930290529007e-01  -5.3680504772436421e-01  -4.3428128533919507e+03  -1.5632345948495119e-01  -1.1720813592618567e-01  -2.6323344144796934e-01  -1.2081203433506008e-01  -6.4942489479838383e-02  1.0838184153123390e+02  -4.3902303874339793e-01  -6.1675968782906911e-02  -3.5127661254749709e-01  -3.3963244073695442e-01  -3.5699618420251505e-01  -1.0430181025627894e-01  -2.3087081084562800e+04  -1.1701796419414221e+04  -1.9670152647044034e-01  -4.8300950437303852e-01  -1.9927944600951522e-01  -2.2220981281449689e+01  -3.2440641312070512e-01  -1.5832156988975818e-01  -1.6657940889730066e-01  -9.1285554684114950e-02  1.8936365726945503e+01  1.9734749044383207e+01  -5.4823285737131591e+03  -1.9888274136597633e-01  -1.5115808187182339e-01  -1.3263761018065554e-01  -4.7713756331348006e-01  -2.7339636283196717e-01  -3.8638284790560547e+01  -1.4173846919630390e+02  -1.3916284438485493e-01  -3.3214658781608941e-01  -1.5555753061943049e+03  -2.9816873778608144e-01  -1.2960036123118274e-01  -4.6713407495708636e-01  -8.6936374148329595e-02  -4.6361061710281931e+04  -3.7898981307788526e-01  -1.9163600774215975e-01  -4.8417936474003234e-02  -4.1733199613008143e-01  -2.1567528680522413e-01  -2.9616284321047165e-01  -4.0910221082071646e-01  -9.1012810783557704e-02  -2.2451613795898326e-01  -5.1127100051161506e+03  -9.2351580838155242e-02  -6.8070027151186790e-02  -9.3618654968804713e-02  -1.5927082049919765e+01  -3.9811908612878716e-01  -4.5919775256532658e-01  -3.0449070949324575e-01  3.0151039033185623e-01  -2.0342865525608261e-01  -2.5040746510322226e-01  1.4976807380666032e+04  -1.2400496057803428e-01  -1.3037083189098411e-01  8.0414505818556199e+02  -1.2434255906699890e+02  -2.5662448541437244e-01  -2.5181971458383196e-01  -4.7550002328914953e-01  -1.6270619628905086e-01  -4.5704093480673341e-01  -4.2752178157034226e-01  -3.5732256026266351e-01  -3.1181183005099461e-01  -3.1196839345675020e-01  -1.9743667558819944e-01  -1.7626062860071509e-01  -2.3914721879511019e-01  -5.3985081688384251e-01  -2.9425100189352488e+01  -7.7679959081802946e-02  -7.4068485506389087e-02  -2.0272395481794769e+02  -8.7936875183578300e-01  -5.0650596622540366e-02  -4.6184581577210659e-01  -3.7720862920369047e-01  -3.5141644747471473e-01  -6.8003001066178285e+02  3.5166548474798489e+00  -2.7940229811761141e-01  -1.2156994701258773e-01  -2.6627518470517053e-01  -4.6019577680355132e-02  -7.2959540716631952e-02  -1.6713888374671934e-01  -1.0271096909011376e-01  -8.5732440454508578e+03  -1.0636065523528390e-01  -1.5054793895646726e-01  -2.4249548828481912e-01  -3.4025226957792976e-01  -5.5763419465596298e-01  -4.8516537246716382e-02  -6.2083198059748490e-02  -3.1152702526394709e+01  -4.1443098043474397e-01  -1.4309803423461943e+04  -2.4333641086193169e+04  -1.9351896943893612e-01  -5.7105643307398812e-02  -4.0120256852910818e-01  -1.1686454701292334e-01  -4.0298741401718835e-01  -1.1487929818915518e-01  -1.5102467068140463e-01  -2.8263283019420855e+04  -3.2017705404026474e+03  -5.0606279306931455e+01  -5.1918278393359643e+01  -3.6889762888342420e-01  -4.4576355570032700e-01  -3.1359475788389152e-01  -8.0607488767223068e-02  -3.0537850650247151e+02  -4.5257414939323814e+02  -2.0512362103477280e-01  -1.8944277524695338e-01  -1.6753969055669291e-01  -2.6757532753320907e+03  -1.1236543898981055e-01  -1.2245946185480140e-01  -3.4308392731705734e-01  -4.7448147144463347e-02  -1.2595074515275789e-01  -1.3168270832265636e-01  -1.5441616148075923e-01  -5.5154690794143181e-02  -7.6898528410923983e-02  -5.7533224101330854e-02  -4.9927349813761915e-02  -1.4634411704339959e+01  -1.2111906408896347e-01  6.5991578449384150e+01  -7.7103552569783345e+00  -2.3447450478399748e-01  -8.7416513353604924e-02  -5.6472759718312643e-02  -2.2287320497377813e-01  -5.3257993621411912e-02  -7.7996902007422875e-02  -3.0909023151016707e-01  -2.9177978419510603e-01  -8.1435672944073625e-02  -5.4822779616577486e+02  8.2213635059075707e-01  -4.2011792598308723e-01  -1.5520911597606654e-01  -7.0348022207370406e+01  -9.3185476650629831e-02  -5.7517788840202011e-01  -5.4769295028258369e-01  -5.4386093649135137e-01  -1.6381325609169706e-01  -6.1987276673544027e-02  -2.0335748585784330e-01  -1.7753379496682489e+03  -5.9977995102641984e-02  -2.1089554138248772e+02  -2.6789542712104880e-01  -2.1946871106712165e-01  -1.1390759284604346e-01  -4.8925142106419219e-02  -2.4736294647514342e-01  -7.6777484666370119e-02  -5.5132331483235431e-02  1.3767266405404712e+00  2.1622465491153199e+02  -2.1932850700643497e-01  -8.7439612121779975e-02  -5.8337338897163506e-02  -2.5673590633063881e+01  -1.6440894750849994e-01  -5.0928271372278566e-01  -2.5193566130688111e-01  -4.2664607903035667e-02  -3.0604281468849975e-01  2.1327964681843512e+00  -5.5404742650786309e-01  -1.9913841081607861e-01  -6.1549622340696624e+02  -3.2964550794879616e-01  -3.7727304313575249e-01  -8.8026001300438653e-02  -1.7591938085691800e-01  -5.7811173950563999e-01  -1.6424202133957838e+05  -4.8312162525873170e-01  -4.9636908841731664e-01  -4.8042842765791516e-01  -5.1988517725127981e-01  -5.1969912576518706e-01  -5.8216213028700690e-02  -4.5696490651421756e-02  -2.8181991869796308e-01  -2.8057990278871991e-01  -3.0885318223653219e-01  -3.2878585393460620e+04  -5.7438215676486737e-01  -1.8470700141400936e-01  -7.6681816983298248e-02  -3.9578542601504763e-01  -9.9306499233124026e-02  -9.1958170607406881e-02  -7.9296883861210990e-02  -1.5303633301515415e-01  -8.5759573490444579e-02  -3.7788611590418325e-01  -1.2981024426895210e-01  -2.8134865515489971e-01  -9.5218674048306984e-01  -1.6369191654955305e+01  -6.3789890553530260e-01  -6.3302152797401601e-01  -1.1942928503874364e-01  -3.1649247123132840e-01  -6.5305096301483748e-02  -6.0593542574798409e-01  -1.7406917554642889e+03  -5.9617483938484615e-02  -4.6918183974758243e-01  -4.5690277474890878e-01  -2.2289035612550392e-01  -1.3323687856875224e-01  8.7669271200389934e-02  -3.8133401461543748e-01  -4.1992001948837537e-02  -5.7428972474570639e-01  -1.0098358269841745e-01  -1.4009141554304952e-01  -4.0404167595096380e-01  -1.1259980560677249e-01  -5.0819279856409116e-01  -6.1200523819357535e+04  -3.4893550626434433e+02  -7.7819161172446593e+02  4.8203880005455953e-02  -1.1811918509899634e-01  -2.1595045249513115e-01  -2.4064186461409756e-01  -3.3466360897780634e-01  -1.9144747499405179e-01  -1.5601017319615657e-01  -7.0610098565601256e-02  -5.6317525057227771e-02  -1.1794362230081215e+03  -1.5155777517971564e+06  -6.9498243477543531e-01  -5.5517781753725216e-02  -3.5644202601569502e-01  -3.9134188521750018e-02  -1.9780061091683866e+01  -4.1554608702434499e-02  -1.1280855076622478e+02  -5.1767997149142033e+01  -3.2848242720401131e+00  -1.2374726913036860e+05  -2.5186108624518820e+01  -4.3418301742510018e-02  -1.9817475919439523e-01  -2.3610679670371568e-01  -4.5409787098172172e-02  -4.4640697480510125e-02  -4.3853854126266897e-02  -2.7776221906747953e+04  -4.2798122660811339e+06  -2.2847558443671130e+06  -1.0587174771991760e+01  4.1333491742115001e+01  -4.3690149222154001e-01  -1.6003641701982671e-01  -5.9095905707143402e+03  -4.2888361839001647e+01  -5.9787611110651129e-01  -4.5806028781256595e+02  -4.9967353571375099e-02  -5.1740104258492203e-01  -2.7629518936066189e-01  -5.9159307641096903e-01  -7.3232802467100100e-01  -4.2738554992264165e-02  -4.0239395629687418e-02  -3.5062747663837976e-02  -3.4533218996766368e-02  -5.5400829883978143e+05  -3.5833466386718305e-01  -3.4688526890070653e-01  -4.3186384057628271e-02  -4.2495155472997710e-02  -4.9068047904960568e-02  -1.7099756003065450e-01  -1.0926537801978933e+00  -2.3639279823836540e-01  -4.1379422119397752e+01  -2.7851539132613679e-01  -7.3208369935235824e+00  -4.9591201472892399e-01  -4.7720098437320768e-01  -5.1107200963854094e-01  -8.8124139948709115e-02  -5.4754829376241942e-01  -4.1621041844048345e-01  1.0520324756359205e-01  -2.7093533923524014e+03  -3.2193226256060437e-01  -3.8096386780936864e-01  -1.5350629955458851e+02  -4.4365488219474407e+05  -2.6322246544537332e+05  -1.1847992088877353e+05  -7.2611481942945265e+05  -2.3658938813358472e+00  -4.8646150934476418e-01  -8.7099140662436542e-02  -1.7383895940054386e-01  -6.1257618356403540e+00  -1.0491739490034181e-01  -4.5270739983201663e-01  -5.7284488004704225e-02  -2.4901066967458909e+05  -8.8694784469647399e+00  -3.5134170903625833e-01  3.2705786817343158e-01  -2.6950992878247820e-01  -2.0808079692277943e+02  -2.8425599095173831e-01  -3.8234273643682753e-01  -3.5965728423316129e-01  -1.6678224431323246e-01  -8.0334736136383075e-02  -4.2007786551717852e-01  -1.1029091912797853e-01  -9.7826268547220263e-02  -3.2445918291815834e-01  -2.2374822823884283e-01  -4.3531526505979390e-01  -2.1040683292936474e-01  -4.8807974855162362e-01  -8.8089808820159640e-02  -3.7784746481900766e+03  -1.3677890892437069e+03  -1.1370047760181609e-01  -1.6266077099004572e-01  -1.5518767118628091e-01  -1.3020627956914252e-01  -1.3354365582187491e-01  -5.3877255055201840e+02  -1.0319362709966718e+06  -1.4061688588411814e-01  -1.5371676302171658e+04  -3.2190722187232435e-01  -9.6666984613533477e+03  -7.1706364536600413e+03  -1.6504936278246143e-01  -2.7427419777635548e-01  -1.8953796422223068e-01  -1.7983796322036663e-01  -1.5683370751853922e+03  -7.5948087282048687e-02  -9.7492430837222579e+04  -2.9615140126158178e+04  -3.3018242867626832e+04  -3.6365729486984727e-01  -1.0928560121749530e-01  -2.9328654670349632e+01  -6.4234788607914721e+00  -3.4447353940891185e+02  -6.6020691190329251e+02  -2.5648687900511328e+02  -7.6926541428388395e-02  -2.4914020204206613e-01  -2.8319162705245465e-01  -8.9847090538415469e-02  -6.1725288145371003e-02  -1.0265156740994855e-01  -1.9036819181769041e-01  1.0787689575217623e+00  -5.9140332596524659e+03  -2.4210259668155196e-01  -1.4738818900483802e-01  -4.3900994906860530e-01  -3.1480105682416187e-01  -7.0607558557485364e-02  -4.4266420139448476e-01  -1.7256734654474545e-01  -1.0919323869721956e-01  -9.5891669028