<?xml version="1.0"?>
<VTKFile type="UnstructuredGrid"  version="0.1"  >
<UnstructuredGrid>
<Piece  NumberOfPoints="6486" NumberOfCells="12696">
<Points>
<DataArray  type="Float64"  NumberOfComponents="3"  format="ascii">0 2.5 0  0 0 0  2.5 0 0  2.5 2.5 0  1.25 0 0  2.5 1.25 0  1.25 2.5 0  0 1.25 0  1.25 1.25 0  0 0.625 0  0.625 0 0  0.625 2.5 0  0 1.875 0  2.5 0.625 0  1.875 0 0  2.5 1.875 0  1.875 2.5 0  1.770833333333333 0.7291666666666666 0  0.7291666666666666 1.770833333333333 0  0.9375 0.625 0  1.875 1.5625 0  0.642361111111111 1.163194444444444 0  1.341594827586207 1.883979885057471 0  0.46875 0.46875 0  2.03125 2.03125 0  0.3626104797979798 1.513178661616162 0  1.381740196078431 0.4564950980392157 0  0.9375 2.172619047619047 0  2.172619047619047 0.9375 0  2.096354166666667 0.4036458333333332 0  0.4036458333333333 2.096354166666667 0  1.684027777777778 1.163194444444444 0  0.3418803418803419 0.8693910256410255 0  1.642742622813391 2.162164207604464 0  1.275619849389031 0.8465650753054845 0  0.9136284722222221 1.434461805555556 0  1.732437511238546 0.3406962303960658 0  0.9714402568595876 1.029779313093998 0  1.52281746031746 1.485615079365079 0  2.1875 1.71875 0  1.06819722569879 0.2997236128493951 0  2.136114211309524 1.303478422619048 0  0.3125 0 0  0 0.3125 0  2.5 2.1875 0  2.1875 2.5 0  0.3200021620376328 1.192323085056694 0  0.6738456129277992 0.8304377375553881 0  1.757891808928991 1.861952730357003 0  1.5625 0 0  0.9375 0 0  0.3125 2.5 0  2.1875 0 0  2.5 0.9375 0  0 0.9375 0  0 1.5625 0  0.9375 2.5 0  2.5 0.3125 0  0 2.1875 0  1.5625 2.5 0  2.5 1.5625 0  0.7448220909826522 0.3003573636608841 0  1.027298850574712 1.871151477832512 0  1.331260495098891 2.197262878816185 0  1.207917681892289 1.582765010956622 0  0.4339993447432606 1.801186844743261 0  0.6337298768939392 1.443093039772727 0  2.049851190476191 0.6826636904761904 0  0.6584821428571428 2.219122023809524 0  1.89575676467455 0.9798457973793544 0  1.437570562095628 1.059380588255917 0  1.502090052505845 0.6987070896496241 0  0.2040860661083546 1.705323965099331 0  0.2083333333333333 0.46875 0  0.5070952039991439 0.2211150679997147 0  0.6916302856529919 0.5813591430410241 0  2.265625 1.953125 0  2.2265625 2.2265625 0  1.886424081252096 2.243391360417365 0  1.40625 0.202164758520858 0  0.2269345238095238 0.2269345238095238 0  1.152730869673694 0.5225850378741401 0  1.885631899587912 1.312095130148776 0  1.614808884009367 0.9049784971014416 0  1.890095442220658 0.5126535558463003 0  2.323168682795699 0.46875 0  2.268811725689575 0.2304742875213018 0  0.6002389442105756 1.967426444210576 0  0.1768313172043011 2.03125 0  0.2311882743104251 2.269525712478698 0  2.03125 0.176831317204301 0  2.280262553344767 0.6954945504579233 0  1.979219539285994 1.809922269642997 0  2.336309523809524 1.09375 0  1.09375 2.336309523809524 0  0.9314042474388009 1.662973812215543 0  0.1634067999087722 1.40625 0  2.337090640094896 1.40625 0  1.141616997467638 2.069311773587991 0  0.46875 2.338939559681489 0  1.542440307908715 1.734944797244472 0  1.556713687786879 1.956977865354753 0  0.8264238995344066 1.975424467820646 0  1.466326331454725 1.275271369760862 0  1.655675324257095 0.5444159974393489 0  0.3385416666666666 0.6479255698005697 0  0 0.78125 0  0.5236073939200119 0.984090461540625 0  2.091665741047893 1.519793517904215 0  1.71875 2.5 0  0.5356538886262603 1.623137930505009 0  0 1.09375 0  0.1932884281517095 1.015625 0  0.8569313582417669 1.2198915584249 0  0.8876981284879677 0.8329884081524883 0  1.115618488474214 0.7219586973356271 0  1.186950366204949 1.043465130075318 0  2.057459118787237 1.110823087309335 0  1.830651283878689 2.049810069572418 0  1.689107969301489 1.367247437031697 0  0.4921048768039656 1.298643370653124 0  0.8213975694444444 2.336309523809524 0  2.03125 2.5 0  1.049729400480002 1.283723261332814 0  1.308101375801673 0.6489479469700392 0  2.5 2.34375 0  0.4968777175037714 0.7562964879736076 0  1.40625 2.5 0  1.501347663534097 2.307027627307738 0  1.602813712048603 0.1926218191360736 0  0.8393082906308107 0.463778306132633 0  1.682663349152719 1.598471865581041 0  0.7774174680851571 1.560004941327907 0  1.554204170364662 0.3898593897892066 0  1.842184459051087 0.186443880058197 0  1.358107417651776 1.696381759610015 0  1.18859291992392 1.77598670078022 0  0.1875331222687418 0.7609599743339348 0  1.339536743965101 1.422080365801479 0  0.7788179348750389 0.9955343414928611 0  0.9062978492805438 0.1919636509126373 0  1.256007360640958 0.3160320559396114 0  1.09375 0 0  1.174986727221844 0.1594990293443933 0  2.34375 1.796875 0  2.318026474511116 1.589177949022232 0  2.34375 2.5 0  1.672742954892153 2.332882724550692 0  0.2683637361947215 1.874801596909639 0  2.174770749820102 0.5581009131310781 0  1.443279522965991 0.8870068372898454 0  0.3385416666666667 0.3571428571428572 0  0.78125 0 0  2.060421048269335 2.314363248763811 0  1.088078737088509 0.8967352118723447 0  1.087825368444708 1.454931510884769 0  2.018308232129541 0.8548495425854904 0  1.943987311736842 0.3246298523011434 0  1.71875 0 0  1.85337849796276 1.144833312386208 0  2.3486328125 2.1044921875 0  1.407588788651747 2.042968789119587 0  2.336309523809524 0.865366648092144 0  2.34375 0 0  2.5 0.15625 0  0.15625 2.5 0  0 2.34375 0  0.1638044648294291 1.242263417405867 0  0.356216654757926 1.032569427322806 0  0.3188217956111817 1.355736727000647 0  0.5924956460852111 0.36112522004736 0  0.6594216488965849 0.1603472116132387 0  1.841804599497131 1.72214349266521 0  0.15625 0 0  0 0.15625 0  2.115898634821499 1.894570904464496 0  0.7821877980253907 0.7129993435924866 0  1.003820447087786 0.4516053462784233 0  0.477562948779147 1.138333049293613 0  0.719493678605015 1.305655360135975 0  0.9772457618587566 2.020350128938537 0  0.8764738248887107 1.826219722709673 0  1.254787875123819 2.339010653832026 0  2.343597354852534 1.249982759769001 0  0.78125 2.5 0  0.46875 2.5 0  2.5 1.40625 0  1.09375 2.5 0  2.5 0.78125 0  2.5 1.09375 0  2.03125 0 0  2.5 0.46875 0  1.40625 0 0  0.46875 0 0  0 0.46875 0  0 1.40625 0  0 1.71875 0  0 2.03125 0  2.5 1.71875 0  2.5 2.03125 0  2.005424054645407 1.653223486966518 0  0.1538730573856537 1.559850281736677 0  2.33984375 2.33984375 0  1.166539506212474 1.922878979538754 0  0.3914885633949916 1.65887232812171 0  0.5795503163042564 1.766243562569382 0  0.399533125920212 1.946786875081388 0  0.7866324979014098 2.127719094551316 0  0.3654683023546834 0.1495701132219454 0  0.1527388747131078 0.6116379440619215 0  2.013737577140188 1.391056634712135 0  1.17635437372994 2.213329084238133 0  1.737118141866284 1.010577140843115 0  2.200707118087222 1.164723314085963 0  1.697018908736685 1.993548551451517 0  0.5387621649009668 0.6070503962352419 0  2.032805785855952 0.5330427622570983 0  1.082699501358059 1.667818725183932 0  1.503819781540653 0.5468420196858188 0  2.015409142866072 2.175941657590429 0  1.752057611265444 0.869642097111018 0  0.612251684107783 2.356045720700959 0  1.902817102342857 0.6607642211999982 0  2.159616561739693 0.7867739969338844 0  0.5120038350106624 2.197302352398502 0  1.888200216011548 1.919501662489862 0  1.495909909726654 2.16028358757309 0  0.489139876703609 1.443203008943564 0  0.8819175670410521 0.3301172743913011 0  1.882591144370812 0.8155965192707721 0  1.133979796994841 1.172526771862882 0  2.206217447916667 2.084147135416667 0  2.20361328125 2.36279296875 0  1.395746985657004 1.556054166359645 0  1.704383111516207 1.734750450338683 0  0.9575737847222222 2.36274223823052 0  1.035150984253136 0.1302833343179028 0  1.383966125325753 0.7651479963479179 0  1.64003252158672 0.6824316405528895 0  2.22550785055421 1.487078576356817 0  1.760964431499756 1.48495222505201 0  1.276460980673788 2.004207003584658 0  0.1341477688427096 1.828777507920502 0  1.542261434180652 1.155296658359034 0  1.334627911613854 0.9696897472490321 0  1.30794231473696 1.119420615785191 0  0.7028260459857245 0.4438906910721139 0  1.625757433094055 1.84268057552138 0  0.9818707849053143 1.165603626132254 0  2.0086489901463 1.243134585689553 0  1.934584460420609 2.374094051915812 0  1.798434376789567 2.38671361912528 0  1.206314791201715 1.382064292497919 0  0.6333752893366955 0.7023738550008095 0  0.7796219811205605 1.42573253164258 0  1.564399711917382 1.026040828857629 0  0.3385416666666666 0.4889012896825397 0  0.1041666666666667 0.390625 0  0.989112246382566 1.543537365516289 0  2.025724425454636 0.9846960595520872 0  0.6602885475034063 2.086117390485779 0  1.607130551925032 1.267198646640915 0  0.1317864544877056 0.8896173683400176 0  1.755387840017567 2.230364320056445 0  1.301540702984401 0.1216289692748247 0  1.433170657577442 0.3331052752740999 0  1.500459610550388 0.113513924782439 0  0.6494291520606965 1.029586599619295 0  1.010146149868299 0.794897284196169 0  0.3700844198238017 2.235390157870766 0  0.3360891767780704 2.36656279435396 0  1.876856241037701 1.437150669863757 0  1.778674102957329 1.245979347269706 0  0.5472829890977179 0.1005517127039925 0  0.4669074189005698 0.3416784232954367 0  1.472765289289269 1.850899166481903 0  1.555853593327178 1.608452097912802 0  0.6708955559113426 1.646561631116984 0  0.8164699620322933 0.5924479455478063 0  0.3167738989468366 1.758696809749795 0  0.2788007305565096 1.605499483471246 0  0.7821720982350511 0.181524936294752 0  1.376812251214195 2.313340247908297 0  1.785652202614777 0.5962261755537186 0  1.761467296310972 0.4679567244718574 0  2.2265625 1.8359375 0  2.3828125 1.9140625 0  0.5279531607054191 2.071552361614785 0  2.397573269551114 0.234375 0  2.383578172599618 0.3589298466020009 0  0.1024267304488855 2.265625 0  0.1164218274003825 2.141070153397999 0  0.2696857594953064 2.135405441512016 0  2.164961300137334 0.1375322943529536 0  2.137757548369486 0.2724194778647587 0  2.238873711826398 0.3626419179496562 0  0.1001414910226386 0.234375 0  0.2176339285714286 0.3478422619047619 0  0.2503620791333544 0.1061694061057066 0  2.336445461915368 0.1250451055247424 0  0.2154004640409726 2.3918124
[...]
<PointData  Scalars="f_49-0"> 
<DataArray  type="Float64"  Name="f_49-0"  format="ascii">-4.9547253067240725e-05  -5.5406317475944948e-03  2.0843557275874761e-06  8.8519652684749669e-05  -1.8444289895472568e-03  1.3200759251421924e-06  -7.5150066327491633e-05  -2.9954791377080911e-03  -4.0484042240741905e-04  -4.7917045236733615e-03  -3.7444589515858813e-03  -6.4691547976588281e-05  -1.0554993327552093e-03  1.9494467932038890e-06  -2.1132785185421686e-04  6.0947096317634049e-05  -4.8317832493706097e-06  -5.8693202818072617e-04  -1.5503963212626232e-03  -2.3761592641565609e-03  2.3401926079698096e-04  -3.2144310792093650e-03  -1.0661890878502344e-03  -1.4257741162373818e-03  8.0533285170420485e-04  -2.2894290379610652e-03  -1.6218514899883421e-03  -4.8360281548554251e-04  -5.3378221121659085e-05  -4.7558457992587690e-05  -5.7177347797263470e-04  -7.0828335173974961e-04  -4.0669204559913635e-03  -2.5709403621173758e-04  -1.7466430262052652e-03  -2.4334116151962693e-03  -4.8878100180363882e-04  -1.0763640448865992e-03  1.9136352663068348e-04  1.9671891735675729e-04  -2.4868327345929616e-03  -8.6332839311092197e-05  -4.5059754154412159e-03  -5.5451124529790020e-03  1.6132641178174265e-04  1.2158808060719864e-04  -3.1450216337028823e-03  -2.4124021282228218e-03  6.1548686949567484e-04  -8.2036031708651645e-04  -2.7853202922073017e-03  -4.7705834067149953e-05  -9.7100340266980261e-06  1.7678912356973160e-06  -3.7848840436944674e-03  -2.0847536868758847e-03  -6.9193901380807966e-05  1.8633749758427988e-06  -3.4137345461312884e-04  -6.5073144562965960e-05  6.4953317473055345e-06  -3.3882113257948259e-03  -1.2279349418766201e-03  -3.9894787224759764e-04  -1.5157161658808415e-03  -1.4617340600390006e-03  -2.4792810286473951e-03  -9.7158451612277516e-05  -3.4457713933186825e-04  -3.5988672595980205e-04  -1.1546839632728440e-03  -1.2896720473569547e-03  -1.6936974563300973e-03  -4.9503794723908794e-03  -3.8799184697930413e-03  -1.6608227103091181e-03  3.7993118424280858e-04  4.6242139693445191e-04  2.0053111574799140e-04  -1.3885236689858786e-03  -3.9689582462423757e-04  -2.2948249208656125e-03  -3.0315083111562014e-04  -1.0172419528348465e-03  -2.4698321286623326e-04  -1.5336789403489785e-08  -3.8607193688385864e-06  -9.8289583407275369e-04  -6.5972673924517312e-04  -2.2338546853406646e-04  -7.8128324265691699e-05  -6.3084737535844085e-06  7.4218433452179211e-04  -7.6144573205794297e-06  -2.0941524538427137e-04  -1.8266707608000979e-03  -2.5900134086187586e-03  -6.5438478613620496e-06  -6.9867720635326735e-04  -1.6354489701169667e-04  -1.1243437956362442e-04  -4.3124456126010123e-04  -9.8132176453446466e-04  -3.1635912308972071e-04  -8.4609944242038364e-04  -4.4614364230942446e-03  -4.2962919669969806e-03  -3.6667152432396256e-03  -2.5169568197011501e-06  -5.1573076558547190e-05  -1.9630589147949613e-03  -3.3760271122487543e-03  -3.6206845190266531e-03  -2.6492214758210213e-03  -1.0930339260598284e-03  -2.1572678144881042e-03  -7.4452143411308071e-04  -1.3798471128745524e-04  4.7467262092780400e-04  -2.1358132510430449e-04  -2.8620348625223923e-03  -1.9882546460552050e-04  8.0517789530407254e-05  -1.5827000612700698e-03  -1.8447214230281875e-03  1.4276627633641421e-04  -3.7637084019248907e-03  -7.1610753136525204e-05  -2.1748765806808382e-04  -7.6667787403045696e-04  -2.9967047424227468e-03  4.8674128311442682e-04  -2.1334511330444415e-03  -1.0565862652071258e-03  -2.4987826710971345e-04  -1.0251219568321386e-03  -1.4651670424558690e-03  -4.3501391295364556e-03  -3.0472707531000365e-04  -2.4807589085745034e-03  -2.9173984453294659e-03  -1.9533229020198325e-03  -2.3334231048735281e-03  -2.2001167757543568e-03  1.2172734286939999e-04  2.3074833951355512e-05  1.3180656860708380e-04  -1.3719996135045474e-04  -1.1786470612980167e-03  -2.1282346659005518e-05  -1.4256799003012186e-03  -1.5648419413432171e-03  -3.2226600710589478e-03  3.0466958440825126e-04  -1.2271888797123296e-03  -1.8637708448126285e-03  -1.7335055488641997e-04  -1.5329248620210865e-04  -4.7864636778406644e-04  -4.3429117873717220e-04  3.4288488349489801e-04  -6.7710646081261346e-04  -2.8402707891878041e-06  3.8852958255433766e-07  2.0896886899255207e-06  -4.6592068317086895e-05  -1.1432351677249723e-04  -2.9909334761469178e-03  -3.6372193406649530e-03  -2.7108809549691911e-03  -3.1657286492659149e-03  -3.6259761478875589e-03  7.1889719757684781e-04  -5.0076443736695913e-03  -6.1474256867873394e-03  6.2693455950971948e-04  -1.3102544821527206e-03  -2.6746024358850406e-03  -3.3544443216588157e-03  -2.8480225001069879e-03  -8.5067326827532874e-04  -1.3795791096454365e-03  -2.0926665435506912e-04  -8.3795907917581702e-06  -6.4978453437635232e-05  -4.8849048201771932e-05  2.0006844565098610e-06  -7.1931367064074502e-05  1.9551227596578157e-06  1.4602682392937024e-06  -7.7578294216341172e-05  1.9228158731895739e-06  -1.1805790458671210e-03  -4.1425648491802483e-03  -5.1753709242012063e-03  -2.5914934261179381e-03  -1.6287103394300548e-03  -6.8964239558882664e-04  2.3966658018899111e-05  1.1677028715308107e-04  2.9982364097496560e-04  -2.1208449177415084e-03  2.6665168650400676e-04  -1.0938259666985408e-03  -1.9269760125567830e-03  -1.5533071384850690e-03  -9.8727265318031602e-04  -5.7722100681841611e-04  -4.0024968827538651e-03  -4.7680294959939378e-03  -1.3850064303256513e-04  -4.0802328704968408e-04  -6.8506503569450443e-04  -4.3415459866124642e-05  1.0033829923930064e-04  -1.8905862440949791e-03  -9.9579665068207405e-05  -1.7989775387731420e-03  -1.2589217372607001e-03  5.4197074086482426e-04  -6.5822359371870754e-04  -1.5426874327963047e-04  -2.8350261863279336e-04  -4.2206800227811866e-05  -3.6931369667017903e-04  8.2427467104533535e-04  -4.1712392795466470e-04  -2.4746248985446592e-03  -2.9920728993488980e-03  -3.3511042466130944e-04  -6.9689740213559255e-04  5.7943043625348421e-04  2.7315788846138953e-04  -3.6758347155993118e-04  5.8716246277607735e-04  -1.6671497937006821e-04  -2.5721501184279025e-03  -1.6472453340075951e-03  -8.9537305144283229e-04  -1.3328041776791978e-05  1.2945465092536616e-04  -8.5637848618300768e-04  -1.3356022039783218e-03  -8.3865426184450526e-04  -1.4094686238844622e-03  -6.4311219262875067e-04  -2.8786164015196770e-03  6.8726343739451527e-05  -1.6805510543853697e-03  -2.0599340866825174e-04  1.0421027788344006e-04  -4.0192704037109120e-05  -9.6266442439084236e-04  -1.8064425780508950e-03  -2.5346645454252161e-03  -1.1003484043697978e-03  -3.4583051340745788e-03  -5.3607921429729274e-03  -2.1396937978344797e-03  -1.5526021810620890e-04  -6.3589992224869071e-04  -5.0321894787621463e-04  -3.9965369172845922e-03  -6.4799179938509826e-05  -1.6984203983418942e-03  -1.4164942841012344e-03  -1.0227988763871923e-03  -3.3565846712159024e-03  -1.5472669334484722e-03  -2.8523235014522928e-04  -1.2397040002186144e-04  -1.1173362485068477e-04  -4.9095329035100130e-04  -3.9052551579871054e-03  -2.2448970446418914e-03  -6.6644339594921467e-04  2.7890542206769186e-04  -1.8586566194860289e-03  -2.1659871366062240e-03  -1.5650656186575341e-03  -2.0470140223343763e-03  -3.2945936866953930e-03  -2.1783475546773790e-04  -5.2638371475311580e-04  -4.8717958354693280e-04  3.2259529205307032e-04  1.6343424070726825e-04  -6.6721554804350270e-04  1.9388379505190984e-06  1.5615078567289395e-06  -2.2170915799299301e-04  -4.6109123179187606e-04  -4.5290751906569348e-04  -2.1720798120656033e-05  -3.0058844280653577e-05  -9.2237428196166551e-06  -5.2076519707349713e-03  -3.9211324350407594e-03  -3.7225671763850567e-03  1.0705263778180670e-06  -1.0342824026042040e-04  -3.9766699348760574e-04  7.0987072680558515e-04  -5.1083255049953497e-04  -2.4305013029877571e-03  -2.2195788895568148e-03  -1.8922839878828983e-03  -8.4700604300979438e-04  2.0712613572888185e-04  -2.9672606867609231e-03  -9.0834165084534583e-04  -1.5058855322138735e-04  1.1352246199856637e-06  7.7462673119850815e-07  2.7915192348481460e-04  -1.7992674311550841e-03  -1.1935595994628943e-03  -1.1824132969527831e-03  -1.1879141088801740e-03  5.4526946775503123e-05  -6.9703758209566617e-05  -2.9894291287865311e-04  -3.9369198756322192e-03  -1.7631961171700736e-03  -1.5225615908294663e-03  -3.1871045809136019e-05  -3.0622400950240419e-03  -3.6393236655890734e-05  -5.4962540986935513e-04  -3.2520207019237652e-03  -1.0828705965124978e-06  -4.5153765673132612e-03  -2.9667623403690194e-03  3.9629726149141987e-04  8.5510415834705051e-04  -1.3519972525422632e-04  -1.2537378175943379e-04  -2.4367049256623459e-03  -2.8051079660486897e-03  3.2957115569104372e-06  -2.8267076981175726e-05  -2.1101980395684602e-03  -6.6265854638327445e-04  -8.6873551059403866e-04  4.7692150459484984e-04  -3.3516790757634929e-04  2.2626232891618289e-05  -3.2785181122305991e-04  -6.5191677412002806e-04  -1.2042374234264847e-04  -2.4251627572188070e-03  -4.3709770453234480e-03  -3.1583992794602302e-03  -4.7194352682007465e-03  -7.7357228252539103e-04  -1.8628926442236212e-03  -3.1763943108337332e-03  -8.5877606021132669e-07  -7.8224647671728183e-07  -1.2017651367198691e-04  -8.7114403542854562e-05  1.5171758961876131e-04  6.6821247360851233e-05  -6.6815723293692860e-05  -1.5741387984464820e-03  1.7536989417332147e-04  -1.0728805366897797e-03  6.9771291440622198e-05  -7.2624083636212177e-04  -1.1005145980114695e-03  -2.1863773796054704e-04  -2.3933955258979445e-03  -2.5608231377159769e-03  6.0679958410191136e-04  -3.4001829514910956e-04  -8.5006407865026207e-04  -1.3506787060809434e-03  -1.0714678621325347e-04  -3.4121502131724654e-03  -1.5734148250209881e-03  -1.3296973001809833e-03  -9.5043862524538071e-04  -2.0964047160653652e-04  -2.6909285925718592e-03  -1.5093897704113891e-03  -1.8945146881204553e-03  -9.6513342260220797e-04  -5.9386732552086275e-04  -1.4866460730960883e-05  -2.2171972057583728e-03  -1.9338633795202586e-03  -3.6622693317262720e-03  -3.5761185220062699e-04  -3.9550516207264722e-03  -1.3473146757311848e-03  6.2679689525016826e-04  2.8551108382042641e-05  -7.3348717143377679e-04  8.4288400675780427e-05  -2.1580607817893141e-03  -5.0713402060976933e-03  -3.6563510915250050e-03  -2.6498854354593641e-04  -9.0713357900499449e-05  -8.5914989281113657e-04  -9.8293611216672275e-05  -1.3439144568478507e-04  -2.1317953697135837e-03  -3.5957954715435856e-03  1.9205573751330650e-06  -2.1569437770912409e-03  -1.9607848197473504e-03  -1.8410408588959862e-03  -1.5441879150474476e-05  -1.7664871693943093e-03  -2.1636686989468731e-03  -2.6800353497006147e-04  -3.6040690300920847e-03  -3.4406629174804984e-03  -5.2135954601767542e-05  -8.2265067039099811e-04  -8.3143018650663552e-04  8.2731354749755292e-04  -2.6935768421312666e-04  -2.6872578397621428e-03  -3.0618758909207642e-03  -1.3295751853753294e-03  6.2142638930106503e-04  5.1184821817516009e-04  7.4372996641790690e-04  -3.4465916681119288e-03  -1.4097998515581287e-03  -1.1610439891087521e-04  -2.3508830507614680e-04  -7.3487076952945531e-05  -1.9131592998593619e-03  -8.9743771539834935e-04  -1.3554159552777909e-03  -5.5115192907650447e-04  -3.3759989628194382e-03  -5.1081055573546654e-06  -1.5889774500766043e-03  -8.1639544114390302e-04  -3.2973292066431877e-04  1.9057639221174586e-04  -2.6305964650783832e-03  4.0529318990572264e-04  -1.5409593008954203e-03  -2.7696984335793770e-03  -3.1084797162793189e-06  -1.5981065507768466e-03  -3.3964115375156819e-03  -3.2389973681866836e-04  2.7065161189402612e-04  -1.9735963363986105e-05  -6.6535789012539222e-05  -2.1620671581456968e-03  -4.2174608043546767e-03  -1.4818672319461734e-03  -4.2574150436146202e-03  -7.1007542836965779e-04  -1.0630904846821493e-03  -2.9170429912684123e-03  -3.1313991690212543e-05  -5.6453099714382987e-05  -2.6572442611502291e-03  -2.8139730779990109e-04  -3.8175267143175135e-03  -1.0434409402433789e-03  -4.6215530682576101e-03  -1.3712614635523335e-04  -3.2198148406302508e-03  -2.7311216749589550e-03  -2.2135063379479097e-03  -1.7055429386295868e-03  -1.6738780993250408e-03  -1.2728921931476590e-03  -1.2114709951843404e-03  -1.1231297293068459e-03  -4.1168318707924256e-03  -4.9476599217321323e-05  2.7619128370897435e-04  4.0325329283852308e-04  -2.3228385533126923e-04  -3.1724815374322255e-03  -6.1115446887373108e-05  -2.5679363528920253e-03  -2.4290341526449597e-03  -3.0314853165941545e-03  -5.0579149899830417e-04  -2.2837029366375933e-03  -1.3315282182887996e-03  1.8986966173017265e-04  -1.2171136222783002e-03  1.8754564162090221e-06  8.5544421654120046e-07  -3.1976523532761364e-04  1.8706462925023251e-04  -1.0641458455194455e-03  7.2103836367240124e-04  -1.4531261462787906e-04  -9.0605871697672620e-04  -5.3302295429716654e-04  -4.2638522212731910e-03  1.9118139659783686e-06  1.9389310607071550e-06  -1.2539923265820880e-04  -2.7875317967773218e-03  -1.3133985076505842e-03  -1.4258261742270152e-03  -5.3950400449558620e-04  1.5569328205822391e-04  -2.6774709543912383e-03  -5.8185870851729202e-04  -2.6495289374645517e-03  -3.5996079171866026e-03  -2.4170350705163545e-04  -1.3689697741758678e-03  -8.9241614687882512e-04  -8.8153587920853204e-05  -1.0407879606527738e-04  -2.3592184294118292e-03  -3.1529351352136137e-03  -4.0201248246858742e-04  -5.3574181947151714e-06  -4.0109585476452790e-04  -1.2237109550523417e-03  -6.1673426572396146e-04  -5.0132976979106738e-04  4.5283196947534105e-04  -6.8177297593203503e-04  4.2471164930429998e-04  -5.6132451235817656e-05  -1.9675071411277768e-03  1.9582948165861356e-06  -1.1114448130720925e-04  -1.0417699508071732e-04  -2.4085207402357604e-04  8.6380526954435649e-05  2.4930977930787211e-04  4.6422630290809423e-05  2.1076564180543205e-06  -5.2034766142792978e-04  -3.7888691245240193e-05  -3.3897645903563879e-03  -3.4096736940956510e-03  -9.2656994673225306e-04  -2.0111138914262773e-04  -7.5567424706100221e-05  -5.5252666962624195e-04  2.4569539723301784e-04  4.6311242881592294e-04  -1.5796854130269327e-03  -1.3557250334275388e-03  -6.6274384128319332e-07  -3.5551397704343391e-04  -1.5973887930203750e-03  -2.9059160221998181e-03  5.6892233779713968e-04  -2.4811813963112196e-04  -5.6086509131227329e-06  -1.1700424038709526e-03  -3.5842830335641555e-03  -1.3385413124520473e-03  -1.2778053466335120e-03  2.1305892131249519e-06  3.6213283855313013e-04  -3.9926429028217109e-03  1.8154747545192847e-06  -1.5754171350746492e-04  -1.0677946707442418e-03  -7.2049833307118649e-04  -5.1286059861977242e-04  2.0677378760992852e-04  6.6445459036078210e-05  3.0420295177261021e-06  2.1245641682690605e-04  -4.1897733445234332e-03  -2.2116064288433481e-03  -1.3552653059372853e-03  -2.5540293964426592e-05  1.1271248670200472e-06  -1.5119354997280444e-03  1.8696833868495397e-04  -3.8148549146736089e-03  -1.0896007627589515e-03  8.5811632945473129e-05  -3.9015749197249098e-04  -3.7450995759636730e-03  -2.7193803481605273e-03  2.5786638816165060e-04  -2.8869317445337169e-03  -9.7919917468100061e-04  -2.4659382960543312e-03  -2.2979711983021169e-05  -3.6200713446623244e-04  -2.0548668852395716e-03  -2.7037885514040738e-03  -3.3348608039728165e-03  -3.7450146897113163e-03  -3.5180418764166744e-03  -1.9610986350633267e-03  -3.4187675518863266e-03  -3.7418961930014918e-07  1.5728743025632390e-06  -8.5550987658265169e-04  -2.1781608991919979e-03  -1.1251290691926389e-03  -2.4976233796715121e-03  -5.3078311367400098e-03  7.1938525511112007e-04  -1.4733122238222673e-05  -2.6364171290924883e-03  4.8491425660321787e-04  -6.5090827210096066e-06  4.4595779112704481e-04  -9.0097089147511201e-04  4.8050885059723109e-04  -1.6998011247833880e-03  6.2679226018029174e-04  -1.4466772534226333e-03  -2.8919741434759642e-04  -1.9962960828987260e-04  -5.1056340910227956e-03  -6.1868721389609048e-03  7.7658954760465872e-04  -1.5487661517103342e-03  3.5342071504925712e-04  -1.8698391473207692e-04  -4.6411939776255692e-04  2.0647562841792181e-06  -1.3437756720110069e-03  -1.5033603977761005e-03  -8.1946438885451629e-04  1.1113133219190696e-04  -1.9756750305372013e-03  -2.4991763975072030e-03  3.0700744030699316e-05  -4.4807312772358185e-03  -7.3945934205665055e-06  -7.7039535987902830e-05  -2.6828879026679488e-03  -7.4289781278884747e-05  -4.2674280987670399e-03  -1.7688305201810214e-03  -5.1017950146252345e-04  -7.8136227335095902e-04  -1.2875593357664018e-03  7.0067811734687434e-04  -4.7999343664067328e-04  3.1770944582999960e-04  -1.9384959005975038e-03  -1.0676394929875924e-03  -8.1766900560261064e-05  -8.0444199823493531e-06  -1.1741007827418801e-06  -4.6689587521170714e-04  -3.0043655314299167e-03  -1.1596420039856234e-04  8.3911579913919619e-06  -2.0338381554630925e-03  1.2763502096146495e-04  -6.6437985377579487e-05  1.1120063095060271e-04  -7.9384506254711611e-05  -4.9708258903368802e-05  -6.9643674434275284e-05  -1.8581917998449376e-03  -6.6417186896063890e-05  1.3455838780880002e-05  -2.9815297910887231e-04  -6.2688492737762540e-04  1.3899909907435683e-06  1.5485946867822958e-06  3.3114708451264226e-06  -3.5610572060462702e-03  -3.1735005172295098e-03  -2.7993745649810171e-03  -7.2398095031112232e-05  -4.6023909887814660e-03  -2.9942831943048070e-03  -1.3623486484294728e-04  -8.8319692364638533e-04  -4.5426476358007309e-05  -4.7932432055852103e-03  -1.9053768436484464e-04  1.9645556685616730e-06  -3.9760643476229500e-03  -1.0341982644977263e-03  -5.8392353744333427e-03  -5.3719181530912678e-03  -2.9300675772559710e-05  1.5791904130935789e-04  1.2109282620376268e-04  1.0763318522642260e-04  -2.2920308750096039e-03  -6.3962893262351167e-05  -4.9635920734598660e-03  3.9186058804535576e-05  1.4592672878458490e-04  1.8613790708854162e-06  -3.1933431148604540e-04  -4.1363499579055572e-04  -1.9530627161594802e-03  -1.0544211291214080e-04  -1.3632702850041544e-03  -1.2841500598494799e-04  -1.3949415325121453e-03  -2.9636638946738203e-03  -1.7401818329320000e-03  1.7907856553201279e-04  -4.1884901535032409e-03  -1.8261673173284013e-03  -4.8380192794255771e-03  -7.7496706332639794e-04  -2.8742771181124132e-03  -2.4806629530035179e-03  -6.6906190338313239e-04  -2.4235499320387913e-03  -2.1149206968511937e-03  -1.9663491785025088e-03  -2.7816537440377926e-03  -4.5674392842155022e-03  -4.9328152316416608e-03  -2.5661691892726706e-05  -3.3798820827685811e-04  -1.0269972132056116e-03  -5.6034269079720730e-05  -2.6667315727637846e-03  3.6458119174298822e-07  -2.2451080172016984e-03  -7.4949447170839518e-04  -1.1083458073420111e-03  -3.8551588240084002e-03  -1.9960524129332532e-04  -9.1871008682219981e-04  -1.4219515071155989e-03  -3.0347764492183443e-03  -2.2055022281487098e-03  -1.9249679684438505e-04  -1.0632417733527518e-05  -3.7408179376496402e-03  -5.5036957301084899e-05  -1.8801058063773609e-05  -2.4005407622677711e-03  -7.6670292014476525e-04  -1.9783874275146472e-03  -3.9517869216529935e-04  -2.0842252554605233e-03  5.7746853129479590e-05  -1.8323496844829914e-03  -1.6462256659567471e-03  -3.7617317279559320e-04  -2.0709621438443358e-04  -2.2983834476666547e-04  -7.1363484543223810e-05  -1.4730966701512356e-04  -5.0658232992896826e-04  -2.5929359307672504e-03  -7.2426243322549209e-04  -1.5446002985358095e-03  -1.7522943513345152e-03  -1.2373315248903620e-03  -1.1018930730739337e-03  -1.7778190948090859e-04  -1.2078435869596529e-03  -4.6201072855152001e-04  -3.1835029200126373e-04  -6.2595022045714203e-04  -8.9260271515670766e-04  -2.0943968087944543e-03  -1.9934347881891152e-03  -1.7011833995474550e-03  -8.9074214285129051e-04  -2.1322502029618638e-05  -3.1992560494776396e-04  -2.9145071389906883e-04  -3.5024822079993747e-04  -3.8999254523633777e-04  -2.6825078725898190e-04  -1.8564049230345719e-04  1.3560105081985988e-04  -1.2878501443822565e-03  1.2811950335226699e-05  9.4916139273660238e-07  -4.6884456785559742e-05  -1.6778317459198503e-03  -2.5298998440113577e-03  -3.0777985166404978e-03  -2.3145577734378278e-04  -9.3929544451406879e-05  -1.1799084355967220e-03  -1.6179662252586830e-03  -8.9433709893876697e-05  -4.0895796427260420e-03  -2.0041958978384269e-04  7.2027862559537366e-04  4.0680907133382784e-04  1.7233648260469851e-04  -5.7592491684695068e-05  -7.9689405658801095e-05  -2.4676937268677617e-03  -7.4691283