<?xml version="1.0"?>
<VTKFile type="UnstructuredGrid"  version="0.1"  >
<UnstructuredGrid>
<Piece  NumberOfPoints="6454" NumberOfCells="12638">
<Points>
<DataArray  type="Float64"  NumberOfComponents="3"  format="ascii">0 1.5 0  0 0 0  1.5 0 0  1.5 1.5 0  0.75 0 0  1.5 0.75 0  0.75 1.5 0  0 0.75 0  0.75 0.75 0  0 0.375 0  0.375 0 0  0.375 1.5 0  0 1.125 0  1.5 0.375 0  1.125 0 0  1.5 1.125 0  1.125 1.5 0  1.0625 0.4375 0  0.4375 1.0625 0  0.5625 0.375 0  1.125 0.9375 0  0.3854166666666667 0.6979166666666666 0  0.8049568965517241 1.130387931034483 0  0.28125 0.28125 0  1.21875 1.21875 0  0.2175662878787879 0.9079071969696969 0  0.5625 1.303571428571429 0  0.8290441176470589 0.2738970588235294 0  1.303571428571429 0.5625 0  1.2578125 0.2421875 0  0.2421875 1.2578125 0  1.010416666666667 0.6979166666666666 0  0.2051282051282051 0.5216346153846153 0  0.9856455736880344 1.297298524562678 0  0.7653719096334186 0.5079390451832908 0  0.5481770833333334 0.8606770833333333 0  1.039462506743128 0.2044177382376396 0  0.5828641541157527 0.6178675878563986 0  0.9136904761904763 0.8913690476190476 0  1.3125 1.03125 0  0.6409183354192741 0.1798341677096371 0  1.281668526785714 0.7820870535714286 0  0.1875 0 0  0 0.1875 0  1.5 1.3125 0  1.3125 1.5 0  0.1920012972225798 0.7153938510340165 0  0.4043073677566794 0.4982626425332328 0  1.054735085357395 1.117171638214202 0  0.9375 0 0  0.5625 0 0  0.1875 1.5 0  1.3125 0 0  1.5 0.5625 0  0 0.5625 0  0 0.9375 0  0.5625 1.5 0  1.5 0.1875 0  0 1.3125 0  0.9375 1.5 0  1.5 0.9375 0  0.4468932545895913 0.1802144181965304 0  0.7987562970593343 1.318357727289711 0  0.6320399113235965 1.037924776639822 0  0.2603996068459564 1.080712106845956 0  0.3802379261363636 0.8658558238636362 0  0.3950892857142857 1.331473214285714 0  1.229910714285714 0.4095982142857143 0  1.13745405880473 0.5879074784276126 0  0.7482946595664349 0.917427298948138 0  0.8625423372573767 0.63562835295355 0  0.9012540315035069 0.4192242537897745 0  0.6862861647268528 1.220560482834343 0  0.1224516396650128 1.023194379059598 0  0.125 0.28125 0  0.3042571223994863 0.1326690407998288 0  0.4149781713917952 0.3488154858246145 0  1.359375 1.171875 0  1.3359375 1.3359375 0  1.131854448751258 1.346034816250419 0  0.84375 0.1212988551125148 0  0.1361607142857143 0.1361607142857143 0  0.691638521804216 0.3135510227244841 0  1.131379139752747 0.7872570780892659 0  0.9688853304056201 0.5429870982608649 0  1.134057265332395 0.3075921335077801 0  0.1060987903225806 1.21875 0  0.1387129645862553 1.361715427487219 0  1.393901209677419 0.28125 0  1.361287035413745 0.1382845725127811 0  1.21875 0.1060987903225807 0  0.3601433665263453 1.180455866526345 0  0.5483798738512705 1.157949853770241 0  1.36815753200686 0.4172967302747542 0  1.187531723571597 1.085953361785798 0  1.401785714285714 0.65625 0  0.65625 1.401785714285714 0  0.09804407994526333 0.84375 0  1.402254384056937 0.84375 0  0.28125 1.403363735808893 0  0.925464184745229 1.040966878346683 0  0.9340282126721275 1.174186719212852 0  0.8797957988728348 0.7651628218565172 0  0.9934051945542568 0.3266495984636094 0  0.203125 0.3887553418803418 0  0.3141644363520071 0.590454276924375 0  0 0.46875 0  1.254999444628736 0.9118761107425289 0  1.03125 1.5 0  0.3213923331757561 0.9738827583030052 0  0 0.65625 0  0.1159730568910257 0.609375 0  0.5141588149450601 0.7319349350549398 0  0.5326188770927806 0.499793044891493 0  0.6693710930845284 0.4331752184013763 0  0.7121702197229691 0.6260790780451906 0  1.234475471272342 0.6664938523856012 0  1.098390770327214 1.229886041743451 0  1.013464781580893 0.8203484622190179 0  0.2952629260823795 0.7791860223918741 0  0.4928385416666666 1.401785714285714 0  1.21875 1.5 0  0.6298376402880013 0.7702339567996885 0  0.7848608254810038 0.3893687681820236 0  1.5 1.40625 0  0.4622923140598757 1.236370233688302 0  0.4667991207677928 0.9473088592382519 0  0.2981266305022628 0.4537778927841646 0  0.84375 1.5 0  0.9008085981204581 1.384216576384643 0  0.9616882272291621 0.1155730914816442 0  0.5035849743784865 0.2782669836795798 0  1.009598009491631 0.9590831193486247 0  1.105310675430652 0.1118663280349183 0  0.9288474621627256 0.2227857609567891 0  0.7464170347051563 1.031945227193052 0  0.1125198733612451 0.4565759846003609 0  0.841690222029119 0.9722978654718903 0  0.4672907609250232 0.5973206048957169 0  0.5437787095683263 0.1151781905475824 0  0.7536044163845748 0.1896192335637668 0  0.65625 0 0  0.7049920363331066 0.09569941760663599 0  1.40625 1.078125 0  1.39081588470667 0.9535067694133395 0  1.40625 1.5 0  0.6375104178177308 0.9268732242701165 0  1.003645772935292 1.399729634730415 0  0.1610182417168329 1.124880958145783 0  1.304862449892061 0.3348605478786471 0  0.8685031591756179 0.5174815394805063 0  0.203125 0.2142857142857143 0  0.46875 0 0  1.236252628961601 1.388617949258287 0  0.6528472422531054 0.5380411271234069 0  0.8059365139027533 0.8342920789922936 0  1.210984939277725 0.5129097255512943 0  1.166392387042105 0.1947779113806861 0  1.03125 0 0  1.112027098777656 0.6868999874317245 0  1.4091796875 1.2626953125 0  0.7056210334910562 1.122831931927321 0  0.8445532731910484 1.225781273471752 0  1.401785714285714 0.5192199888552865 0  0.5315992325579575 1.02511262900491 0  1.40625 0 0  1.5 0.09375 0  0.09375 1.5 0  0 1.40625 0  0.09828267889765753 0.7453580504435201 0  0.2137299928547555 0.6195416563936835 0  0.191293077366709 0.8134420362003882 0  0.395652989337951 0.09620832696794322 0  0.3786395303236629 0.2546156254865724 0  1.105082759698279 1.033286095599126 0  0.09375 0 0  0 0.09375 0  1.269539180892899 1.136742542678697 0  0.4693126788152344 0.427799606155492 0  0.6022922682526717 0.2709632077670539 0  0.286537769267488 0.682999829576168 0  0.431696207163009 0.7833932160815852 0  0.6864071374811688 0.8459705255349474 0  0.7528727250742914 1.403406392299215 0  1.40615841291152 0.7499896558614008 0  0.46875 1.5 0  0.28125 1.5 0  1.5 0.84375 0  0.65625 1.5 0  1.5 0.46875 0  1.5 0.65625 0  1.21875 0 0  1.5 0.28125 0  0.84375 0 0  0.28125 0 0  0 0.28125 0  0 0.84375 0  0 1.03125 0  0 1.21875 0  1.5 1.03125 0  1.5 1.21875 0  1.203254432787244 0.991934092179911 0  0.7018429057870754 1.316240552056942 0  0.09232383443139219 0.9359101690420062 0  1.40390625 1.40390625 0  0.2348931380369949 0.995323396873026 0  0.3477301897825538 1.059746137541629 0  0.2397198755521273 1.168072125048833 0  0.21928098141281 0.08974206793316726 0  0.09164332482786468 0.3669827664371529 0  0.4604861261832766 1.147925083553434 0  1.208242546284113 0.8346339808272811 0  1.042270885119771 0.6063462845058686 0  1.320424270852333 0.6988339884515781 0  1.018211345242011 1.19612913087091 0  0.3232572989405801 0.3642302377411452 0  1.219683471513571 0.319825657354259 0  0.9022918689243919 0.3281052118114913 0  1.209245485719643 1.305564994554257 0  1.051234566759267 0.5217852582666107 0  0.3673510104646698 1.413627432420576 0  1.295769937043816 0.4720643981603306 0  0.3072023010063974 1.318381411439101 0  1.141690261405714 0.3964585327199988 0  1.132920129606929 1.151700997493917 0  0.4797323103182937 1.318677829548113 0  0.8975459458359925 1.296170152543854 0  0.464209749529605 0.8633392490855897 0  0.2934839260221656 0.8659218053661386 0  0.5291505402246311 0.1980703646347806 0  1.129554686622487 0.4893579115624633 0  0.6803878781969045 0.7035160631177291 0  1.32373046875 1.25048828125 0  1.32216796875 1.41767578125 0  0.5499851861317793 0.9439128053349233 0  1.022629866909724 1.040850270203209 0  0.5745442708333333 1.417645342938312 0  0.6210905905518814 0.07817000059074161 0  0.8251326424747147 1.051763251304391 0  0.9840195129520318 0.4094589843317338 0  1.335304710332526 0.8922471458140904 0  1.056578658899854 0.8909713350312058 0  0.6311277392046407 1.158870891931624 0  0.08048866130562571 1.097266504752301 0  0.7899471681381695 0.5900550615276262 0  0.787583911300231 0.6744258112570235 0  0.9253568605083915 0.6931779950154204 0  0.6069241236579608 1.236016193461046 0  0.9754544598564333 1.105608345312828 0  0.5891224709431884 0.6993621756793521 0  1.20518939408778 0.7458807514137317 0  0.7661039078070937 1.202429845202379 0  1.160750676252366 1.424456431149488 0  1.07906062607374 1.432028171475168 0  0.3800251736020173 0.4214243130004857 0  0.9386398271504294 0.6156244973145778 0  0.0625 0.234375 0  0.203125 0.2933407738095238 0  1.215434655272782 0.5908176357312523 0  0.3862873976850203 1.253958025454808 0  0.9642783311550196 0.7603191879845486 0  0.07907187269262334 0.5337704210040105 0  1.05323270401054 1.338218592033867 0  0.7809244217906405 0.07297738156489482 0  0.8538188665025647 0.1992768958275427 0  0.9002757663302332 0.06810835486946346 0  0.3896574912364178 0.6177519597715768 0  0.8312147565658268 0.4504658003252042 0  0.6060876899209792 0.4769383705177015 0  0.6973120163099531 0.973865749266754 0  0.2220506518942812 1.34123409472246 0  0.2016535060668421 1.419937676612376 0  1.067204461774397 0.7475876083618238 0  1.126113744622621 0.8622904019182541 0  0.3283697934586307 0.06033102762239553 0  0.3141768357227177 0.2102768223058998 0  0.8836591735735614 1.110539499889141 0  0.9335121559963067 0.9650712587476813 0  0.489881977219376 0.3554687673286838 0  0.1635028372004782 0.9601830799237989 0  0.190064339368102 1.055218085849877 0  0.4693032589410306 0.1089149617768512 0  0.826087350728517 1.388004148744978 0  1.071391321568866 0.357735705332231 0  1.056880377786583 0.2807740346831144 0  1.3359375 1.1015625 0  1.4296875 1.1484375 0  0.3906148988360577 0.9415494491776595 0  0.06145603826933142 1.359375 0  0.06985309644022948 1.2846420920388 0  1.438543961730669 0.140625 0  1.43014690355977 0.2153579079612006 0  0.161811455697184 1.281243264907209 0  1.2989767800824 0.08251937661177217 0  1.282654529021692 0.1634516867188552 0  1.343324227095839 0.2175851507697937 0  0.5747241214300347 1.087143402580354 0  0.1502172474800126 0.06370164366342397 0  0.07677312842259779 0.08704698619211086 0  0.06709364565267519 0.1592134266688963 0  0.1305803571428571 0
[...]
<PointData  Scalars="f_6700-0"> 
<DataArray  type="Float64"  Name="f_6700-0"  format="ascii">4.0185388836631749e-07  2.6803000354620239e-10  6.2749386662946797e-13  3.0947308204886260e-06  1.5084039449009593e-10  5.6280313403938123e-08  1.4882437607208800e-06  1.1965846056859772e-05  8.0961654539990035e-04  1.1589232881827587e-05  2.7595386954384550e-10  2.7518988334220318e-07  5.4464749295563603e-06  1.1598646530651437e-12  3.3693123839263830e-11  4.3608009920590069e-06  2.0253568551815115e-05  7.5172332737658236e-08  1.3790420637080402e-05  1.0213595713065893e-04  1.6756259506504751e-04  3.3303793689580139e-04  2.8436420642536173e-04  9.4514591458072527e-04  1.0436832655411495e-04  1.0833014513423208e-05  3.2577647787271370e-06  1.8388800117720383e-08  4.9051916221598742e-08  1.0402878007597526e-11  2.3898262714091238e-06  5.7925771830637338e-05  1.6424484679591238e-04  1.2880064369873837e-04  7.3097240698628951e-05  3.8899609973204230e-04  6.0692202831944065e-11  1.0155679351068158e-03  6.0741259073263663e-04  3.5747023927523342e-05  1.6290569671807005e-08  3.4634145970305597e-06  2.2238839819724581e-10  4.6880653768719093e-06  6.0185278793956424e-06  1.2389274978262860e-05  1.7187805414151212e-05  1.3329365963920725e-03  3.3795861728996835e-04  9.0041255995592828e-11  2.0944512051363187e-10  3.4777156039793104e-07  6.7325940576850835e-12  6.5811404384884701e-10  1.2279502068964778e-05  9.7452201477502736e-06  3.6853824658006143e-07  7.3540406918917424e-13  1.9245699933413006e-06  1.0192427332064664e-05  8.9643518544798075e-07  1.3917867273224567e-06  3.5139297634634471e-05  1.5864008817417959e-04  6.4871326596322441e-06  4.3861711037978413e-05  1.4003735931600960e-06  1.7013370940454650e-09  1.3733277563564003e-06  7.8699485800633661e-04  1.6156218899315432e-04  1.2805621500401364e-06  3.9202860694299640e-05  7.9077863569090493e-06  1.8296559948425719e-03  1.1306787790865742e-06  5.3644531254671743e-04  3.0888588411747718e-05  2.8812083519843583e-05  8.1388961463755373e-05  1.3115206173571721e-10  4.4699723307653958e-05  2.3553959257321099e-06  4.4389824955076627e-05  6.3146103641457714e-06  1.8577704817947005e-10  3.2611631745917049e-06  1.1838871312852528e-06  2.2911630620018364e-12  3.8608423432556912e-12  1.5195512074063171e-11  4.1510437503896523e-06  1.4382935017343365e-05  1.1554173544997808e-10  1.4726119854736199e-04  6.6468708312962565e-08  2.1563689606765005e-06  1.1213532533020550e-05  1.3127240660468981e-06  7.6261751165748826e-07  5.7334578407357707e-04  3.2502831918667920e-04  4.5456098051304745e-04  5.3774697934155240e-09  1.1084342256180209e-03  4.4593981746173775e-04  1.2249432749471027e-05  3.3595739393409718e-05  1.6994412840651558e-05  1.1613322192407128e-05  1.2252081474783377e-05  1.4401040623140568e-05  7.9192822659063591e-04  7.8689525437050992e-04  6.9928025583955458e-05  5.2347063499857082e-04  1.3922833188122216e-06  1.8753257665260191e-04  2.3102235831266873e-04  3.3462423938439792e-05  7.9824621057948653e-07  1.8352406787908364e-05  9.8173275094310037e-04  4.6336137132485738e-06  4.9785118293911220e-06  3.4949991223550728e-06  6.0174206717950588e-05  1.2711128221912233e-03  4.0614705864912145e-06  3.6228573361853864e-05  8.5240563034778049e-11  2.1384189062600964e-05  4.1495476483298415e-04  3.6950964364988262e-11  3.0769978521995312e-10  4.3014012257338501e-04  5.5071550533016990e-05  7.2396941392844380e-04  1.1646317502271115e-03  8.6143324090813239e-10  1.3275701627907582e-09  1.8029714943326455e-10  1.8368638412120881e-10  1.1619825454640423e-05  6.4698768840669064e-06  6.7401859759524385e-06  5.0103383080194277e-04  4.6032452979465016e-05  5.3876730145673171e-06  1.3457536402558695e-11  1.9144138135381397e-05  1.0225605637648773e-03  2.3343135488557557e-10  4.1492266812975917e-05  4.1070574306458505e-04  8.0729801949968693e-04  6.1694864063067380e-08  2.4532373148179614e-11  5.8263438595291625e-11  1.2111955575707541e-05  1.6792828486928805e-05  1.5625237524696334e-04  1.5006756394377721e-04  1.3316534780978953e-09  5.2732744663518073e-05  1.9511888228550512e-12  6.6097927062807729e-13  3.8744883986840805e-07  9.5008804155352845e-07  1.2115805951668617e-05  4.7505946340058569e-05  1.2446010959422881e-05  4.7331228084058106e-09  8.6507815442778165e-05  2.6223792172589224e-04  2.5675053812906706e-10  3.9208606179643854e-08  7.2716746557044361e-05  6.8247011864314003e-04  2.6608334283029419e-06  7.1914341323837090e-05  2.2511821297006068e-04  8.7889895407048887e-04  6.1460279956707681e-06  2.6513826045508554e-07  2.9318032195828970e-07  3.2269327614181493e-07  2.6469458524232785e-07  5.8539446910181240e-07  3.9949058984894520e-11  9.0228310310868717e-09  1.5371489258507297e-11  7.3682715581459339e-13  1.2439916939968166e-10  5.7441056520718767e-10  8.3301781223067398e-06  1.1216980781400450e-05  7.7941675447158723e-06  3.3133446997772765e-06  2.2885372066883844e-06  6.1191228496860948e-06  9.2872638314798941e-05  1.3231825956196832e-05  9.8949452999735034e-06  1.1648454267098018e-05  8.7275053280319091e-06  8.4201697816696285e-06  4.3108604715789521e-06  7.0246567107051701e-08  1.2354373529050477e-04  7.6151316250598327e-06  2.6399167919958451e-05  6.7349417007436176e-06  5.4864244383946517e-07  2.7520903444927552e-04  1.4438167724313943e-03  5.5259482510226208e-11  5.1400118144625405e-08  7.7930211535771031e-05  1.4016483302224470e-06  6.4408314677449618e-07  3.1714386914571511e-09  1.5047758440793689e-06  5.5194674339575076e-09  2.1975194982564816e-04  1.7927049592284881e-06  9.3080563546138313e-05  1.4237295419120333e-04  1.7841582594324394e-05  4.4202512173048246e-07  1.5833216482356053e-07  9.3072070579202455e-04  4.2033758409419063e-05  1.9951902052842781e-05  1.6996847163333647e-04  4.2008221188963139e-04  8.6514557371164524e-07  2.0556607813139502e-10  5.1405027980413564e-04  1.5831937411756689e-07  7.7883271486578518e-06  2.4272583435818140e-04  4.0324311241814232e-05  6.0857606051003018e-06  1.8914193858536829e-04  4.5300591896801212e-04  1.6137991417307116e-04  1.1557436448729162e-05  4.3832311854335136e-04  1.0705218826006771e-03  5.5586272588217524e-06  1.1658967160780613e-04  3.9236895263150189e-05  3.9296022344182404e-05  1.2784358293061555e-03  3.9500928590361794e-05  4.9394376283206851e-04  2.1963455275820416e-03  4.7209575123804320e-07  2.5864622547720064e-06  2.1016094398291940e-04  1.3975363119631724e-05  9.6060280533313917e-05  1.4644842173910163e-10  5.1571371486594729e-10  1.0474589820202865e-10  7.2941830327429469e-04  8.3808362684561774e-06  3.4932104591406046e-04  4.9626149842542898e-04  1.3188101720856467e-06  6.7224250922411384e-07  6.1976343388117899e-05  1.0625014223032368e-04  -1.9499269238084157e-09  8.2807655755505894e-05  4.2712195349528374e-04  6.1437256860249611e-04  2.2414413777130829e-04  9.4403250946866251e-06  7.1298094078828978e-06  4.5961158107832017e-09  1.7033518326335311e-05  4.4797962477370702e-09  2.3076405802585828e-10  3.5192506225072187e-05  1.2235827445744346e-05  2.5725295792035266e-05  1.2982180292918479e-06  2.2661272063069707e-06  1.4544037448160277e-12  1.6966253530110002e-12  2.1569217114498653e-06  7.5635542012933946e-12  8.0488350895687196e-12  4.2133675389078485e-12  5.0972780555598400e-05  3.3952927976722826e-09  -1.3956355938029210e-08  1.1008955324749207e-04  2.6389190440965402e-03  2.2932434823669029e-12  6.3829957489796857e-07  5.4139054834375946e-06  2.8440796764624169e-06  5.8914364289754136e-11  7.1524365621779914e-08  1.2303718183281557e-07  1.9529424937560626e-05  3.6484159601934246e-06  3.9791740532668391e-04  7.8207501055987580e-04  8.3616778309115580e-04  2.0213162580262717e-05  3.8895297249397884e-12  2.5834688870666203e-11  4.4944318734153388e-06  1.0544265495757680e-10  1.1617906653012365e-05  6.6814976520353415e-06  5.0460385263186291e-06  3.9697636780111421e-06  2.3739512564295672e-05  4.4442380267204135e-04  3.0110007116933309e-10  4.3224467515328807e-04  2.8391250742501565e-06  4.3886487250031089e-06  4.2539752610283466e-11  7.3163794653918724e-04  5.4702490303523655e-04  3.2270303597812769e-10  2.1229739454869598e-10  1.0477136273513466e-07  1.3114042583008539e-05  6.2302974471702283e-09  1.6088984782436247e-05  1.1131370691693446e-10  1.0772923799546444e-04  8.3333813182930399e-05  1.3541826854793351e-04  2.4028868260341077e-11  1.6498908426413811e-06  1.1695530461484728e-05  1.0980116597541321e-05  1.2447607883305044e-06  1.1087757853762156e-06  1.1265957289090449e-03  7.3448641999453551e-11  1.2193451178608645e-04  4.4339074055819357e-11  3.0403326339046096e-06  2.1877615046566045e-04  4.2084136449039785e-07  2.4297891592581537e-04  1.0994655199617817e-03  1.8394553108415852e-03  8.7670915744224403e-06  1.2179234515393216e-05  2.7633349447279644e-07  4.9203999868864829e-08  4.4419423263157165e-06  6.6956475523863413e-07  5.8496093816611439e-06  8.2330693276186492e-05  1.0714231193169392e-05  3.3434468430662387e-07  2.2019817153757560e-05  1.7596448734830987e-04  9.3479818139486092e-07  4.0899785267035786e-05  6.3583043908816664e-04  3.7022139235539731e-04  1.0608889487767297e-05  5.2045166685416677e-05  2.4526597258366945e-05  8.0680783775423392e-04  9.4380741082463197e-04  1.5826805324149954e-05  2.4839756985115089e-04  1.0914710912727677e-05  9.9248938813229458e-04  7.5476794795050980e-04  3.7989641511630153e-04  1.0522901310232346e-03  1.8598958852028516e-08  1.5622180397678885e-08  7.8793179968067754e-05  1.3051526902622790e-06  1.2663992613129336e-05  3.0543877229936378e-05  3.1969280154138642e-05  1.0910845961195844e-03  5.4884964717815498e-05  1.3410852020576215e-05  1.0864113818933695e-04  1.2440460050218835e-05  1.8359749660266245e-06  2.9186090259196667e-07  1.5684685316486079e-04  1.9987637871867160e-06  1.2165619330178635e-05  2.9760939090493465e-05  8.6437823467500359e-07  1.1523209056200831e-03  9.7273333749796875e-13  5.7850934006363070e-12  1.8672988861862603e-05  1.0832825546943778e-05  8.0952157448417826e-06  5.2944148129050741e-04  1.1822288690462722e-04  1.5967813946436498e-03  2.7536852912517684e-04  2.9817280440528444e-07  9.8183423603080103e-04  9.0230068501921429e-04  2.6743062225297726e-04  1.2103970724463900e-04  8.1935498880637058e-05  2.3711443473666512e-04  7.1208208784470574e-05  3.9523261786127912e-05  2.7991795333694164e-05  1.1471465252202268e-04  3.3899755124991058e-04  2.6375242618234822e-04  1.6227526362383422e-04  2.4783992682760528e-10  2.4718818555054900e-05  1.4667245993085568e-06  4.4477493547560925e-07  1.4916709192185759e-11  6.5281188416283409e-04  1.8868073235991013e-10  1.2599983800497565e-10  1.7152892405219666e-04  2.7037050166414114e-04  3.1929246452044596e-05  1.5141637168827133e-10  9.1771266598213398e-12  7.3839255594711786e-05  7.5919093825662110e-11  7.4873385342766991e-06  7.0354987726769873e-04  4.0444908195066321e-11  1.6677099155205423e-04  1.1063726872926380e-05  1.2575037581894718e-03  5.2484084944935997e-04  1.5977200629037533e-08  3.7559882214420791e-12  4.2833759729421285e-06  1.2394903668233922e-05  4.5875621440277523e-05  1.6196404349914244e-05  2.4511207367810053e-10  4.9714899716918026e-09  4.0684994578959350e-07  6.7414727231704027e-06  8.8095873895265508e-04  1.4069475994648154e-05  7.2891701003648570e-08  1.2485000314119812e-05  1.0304554410438068e-11  1.1894624104899282e-11  1.5718704823394159e-05  2.0066154202087440e-04  6.7583172186441601e-04  3.4290476892833208e-04  2.1075463381746664e-09  2.0373230509347038e-06  3.2250316199854714e-04  2.3633390483091339e-11  4.3758768601486223e-06  5.2048440660161925e-05  9.8575633121468158e-09  2.6133068072998376e-09  2.7069148361443729e-10  -1.4225813950787541e-08  3.2270025098941215e-07  3.3347129009382127e-05  5.9365757209578702e-05  9.5828007025558639e-07  1.0619549986042049e-04  1.4606989865145443e-05  1.3339669150620271e-09  4.7520815562264386e-04  6.7532809497608678e-04  3.0929692485450800e-04  4.6156059696151193e-04  4.7796786134740994e-04  6.5705679069812356e-04  4.9921731198096400e-05  1.6717741827798649e-10  2.8101991576600191e-06  1.1090939119829704e-05  1.2024310194255866e-04  5.0591714374416424e-06  6.7831579548863200e-05  7.6790188168465548e-10  4.3121563455285409e-05  8.8186360911007859e-11  7.6623640621705729e-13  1.3551821662887396e-12  8.2543120802526920e-07  2.0740223837959356e-10  5.8046850180573799e-06  6.6752883088733645e-06  2.4218481038257813e-06  3.1110569936335761e-05  1.4735712573936928e-07  7.1033076315570075e-04  6.3680209162467151e-04  2.0348981311849368e-06  6.3761743909154710e-05  1.2767197415825446e-04  3.7379029390287318e-06  6.8996184434445331e-06  4.9054588806560050e-07  4.7048796208419480e-07  1.7892417796833533e-10  5.1519250143372405e-05  3.5212982528557029e-08  4.9133747441053859e-10  1.4482054480908659e-05  4.5860853074415136e-06  1.8079939056057101e-04  3.3267050706011154e-06  5.9879203223658740e-05  1.2189346811680766e-10  1.5789595234894261e-10  3.5806956692763173e-10  1.6431107777040089e-05  8.8116853993025479e-04  3.5134753675824138e-04  1.5019704180178433e-05  4.1406357953777713e-12  9.1627375245492688e-08  3.7005424812372347e-07  9.1074183425554045e-09  1.1701122420411706e-04  7.5410259198523769e-06  2.0841324562912627e-05  5.7129176748023836e-06  6.0496867838422261e-13  2.4648041495685700e-10  1.1196730750714348e-03  1.2885028592855327e-11  2.0250769125456697e-05  4.0494652680237373e-05  1.3813244114703401e-05  7.7553351903159181e-05  2.8933401031296112e-05  1.1539886765431200e-04  9.7016097720431994e-06  2.6804249030184128e-05  6.1664399116570007e-06  2.7555547065380753e-12  1.7787256531256683e-06  2.0709867148897239e-06  7.9407479697705800e-05  2.7493159489141594e-06  1.6043198235223658e-04  4.2798421138652374e-12  8.7084059827554418e-05  2.7041315757911676e-03  7.5292996251785126e-05  1.1275300662468170e-12  3.8566651830911775e-06  3.0157105911192655e-04  1.2271643630127063e-05  2.0306170356387905e-06  6.6819922627949618e-12  9.2290068286063590e-07  2.1852354889599287e-08  8.5017550666916539e-04  8.0143470341491471e-06  4.7255394237162516e-07  5.2039279628937424e-06  1.4469335428194519e-05  3.2798143846922103e-04  6.6354087957052349e-05  1.0501028538677846e-05  7.0689523273518876e-05  5.4509352886881250e-07  7.0076551798624395e-10  3.5502765954324863e-04  1.8252916201889067e-04  6.7670632880035902e-05  4.7107491233008275e-10  5.4195111092107891e-06  7.9155092239939571e-04  2.6265264394913867e-05  4.9818018495125156e-04  1.5265249120984628e-05  2.1268758150078536e-06  3.1607279300854550e-06  7.0433661506677068e-07  8.3795637255499512e-06  2.9367493342026156e-06  1.1808928179114112e-05  -3.0299779529866565e-10  7.8921292956423900e-08  3.0980839539097929e-07  1.8295550645105851e-08  2.8133174855105990e-09  1.1933520592607157e-05  4.5567108614126339e-04  3.4611462093860171e-04  2.0521340132537323e-07  1.9476793978400858e-10  4.5134575374097317e-05  5.6216877374163992e-04  1.0771886937340620e-05  6.2605863563140729e-06  4.4724177253361463e-12  2.5994227775261484e-05  9.7482233145126007e-05  4.5088331228663759e-04  5.2700981573652695e-05  1.9389158817564821e-04  9.4341275925200044e-05  8.7132662095300100e-05  1.3774414732368353e-10  1.7614219473540495e-05  2.6505717295464395e-06  7.4437067966001838e-13  2.6190344854550340e-05  1.1484448515733502e-03  7.7639803413107977e-04  7.1008449542296040e-04  2.2765697207822869e-04  2.5350737553830530e-05  3.9300813924573505e-06  5.6463255937459537e-05  2.0470947167851684e-05  2.2062475279826089e-06  -9.4263992079126983e-09  5.6409242112976487e-12  1.5526739481525249e-11  3.8026525600942239e-10  6.4758110101285987e-07  1.7322026920820867e-03  9.1627097640398767e-04  7.1098097679772306e-04  1.3302691803457235e-07  4.1994444489758805e-06  1.2059971149584942e-04  5.7942782912887800e-11  5.4533896025805160e-04  6.5213855416426157e-05  6.0115236075950484e-07  1.2150897019598588e-07  2.4017870966796900e-06  2.5632945722546942e-06  1.2019227998857598e-05  9.7697528895698064e-06  1.7119078884633074e-06  1.6279786939220347e-10  9.3045681639207312e-06  1.5765169846060070e-05  5.8818099017790816e-07  3.9198922204227021e-07  2.6698918918102674e-06  8.8132564188896227e-06  2.7629679061726415e-07  1.5194618794761771e-06  4.5778281279582173e-11  7.4522177331987363e-11  2.5735979505824395e-08  1.2460261194056231e-07  4.8515484247786773e-07  1.2271581666046680e-05  1.2160889145069775e-05  1.1660484486840536e-05  1.2359632573117217e-05  2.2308974858179636e-10  4.3858884067831212e-06  2.3699039902852950e-11  3.7240165225794057e-07  2.8009175878359073e-10  7.4373359218470302e-13  1.4484034587670830e-06  3.7058354831356621e-10  1.0754114905012036e-10  7.8536240098437633e-09  3.0928974310703928e-06  1.8470741537156458e-05  9.7423381968349449e-07  5.5432459471946402e-06  3.9339709421384778e-06  4.3366562550382306e-06  1.0531174040825044e-05  6.0676295163516365e-06  1.2383633930845831e-05  3.0273803537568006e-07  3.5386970190720876e-06  6.2426468365616559e-06  5.4131483244795556e-06  2.9976359979295827e-08  -1.4023903276253932e-07  3.1265083095061722e-07  9.5487477052723905e-05  1.5291763838990431e-03  9.2549699766533461e-04  1.0514275498213971e-03  2.3466529931688556e-05  -3.3554533212609793e-09  2.3495547191319360e-05  3.2280962015118808e-06  6.9700412562034787e-05  1.0628319931616558e-05  9.8122675876110219e-06  8.9868823934743760e-06  1.1780853902197104e-05  -1.4101660255537228e-09  6.3366723320931148e-05  4.7281617297295685e-04  1.6391806524910985e-07  4.2807927836706339e-04  1.2833539854685051e-06  1.4455485135363034e-03  6.3225476602371457e-04  6.5554889277314385e-07  2.9653396403938949e-05  1.0123245740573391e-05  1.2054298460580044e-06  1.0210020539527657e-03  8.2522599112080076e-05  2.7748123747826818e-05  3.7337799651706063e-05  1.3590527730619980e-08  5.4282975327179519e-04  9.3044798256437941e-04  1.0387782941765416e-03  1.5577402646963288e-12  2.7974667210218496e-11  3.4754066070840313e-08  1.7641179981791783e-08  7.7973527065683325e-04  1.4381507433699250e-08  5.1499699203903807e-10  1.9735520712375785e-05  9.3887020324118017e-05  4.9288131476909109e-06  5.6884666644091517e-04  1.5886866938338578e-05  1.3196617516047479e-04  1.3185322995474104e-04  4.8073711073633547e-05  1.9138244140660154e-05  2.9512565011544165e-05  8.6056768727351293e-06  1.1247381690612664e-05  1.1679205552330532e-05  6.7693338601890842e-06  9.5960834089382993e-06  4.7214161019212441e-06  5.3927096621679469e-06  2.1297411428783195e-06  4.1406034129876540e-04  2.9443299571074098e-04  1.0613978870449702e-03  1.8830214353569117e-08  1.3643431620598157e-09  3.2093219997011611e-04  1.7979111869707120e-05  2.7541976259703135e-06  7.6244703952986417e-06  9.3472138427354170e-06  9.5435582801547375e-06  6.6723064004972872e-12  1.0777581489654878e-06  1.3524412537248182e-06  2.1422194039600079e-06  1.5486429795412651e-06  5.1990874808003322e-05  4.6018870452120265e-04  3.7659926707120261e-05  1.0111677430229595e-05  6.9113964243669137e-05  9.5294751331784439e-06  1.1630985459023819e-05  3.3481287525468259e-10  1.2777970871695286e-05  2.9070704544479703e-04  1.7812503214016981e-11  1.4851446534009233e-10  5.4659002903365333e-05  8.0672292694806936e-04  2.9563709931044733e-11  3.0624629382895074e-04  8.6421332902591173e-05  8.9762826463508577e-05  9.4953903871743708e-06  1.6764302914637505e-09  1.2675554800546938e-06  4.9103801451010323e-07  1.3650174451401280e-05  2.2186289876580846e-05  2.2663778999554681e-04  2.0598415319907993e-05  2.3305666146271502e-04  3.2659017127937629e-04  5.4462385113058576e-04  2.6910787852423200e-12  2.5979943302111102e-05  4.0921251032967422e-07  9.7280844254499513e-07  3.3563292802074882e-09  1.6904704947875960e-10  4.5507581783125314e-07  5.3288074848579865e-09  2.8354940050706668e-12  1.2484039282615346e-03  2.9253560520057455e-05  8.7484884771618341e-11  1.7218639930762325e-05  1.6418265059024571e-07  1.1414064532657060e-11  2.5234332425277175e-04  1.0332404300018618e-06  1.5350384814932998e-06  1.8870272231603362e-06  9.2733414661956065e-07  2.5111289757411253e-04  2.5341689758307223e-04  6.7410032560792123e-04  1.8