<?xml version="1.0"?>
<VTKFile type="UnstructuredGrid"  version="0.1"  >
<UnstructuredGrid>
<Piece  NumberOfPoints="6486" NumberOfCells="12696">
<Points>
<DataArray  type="Float64"  NumberOfComponents="3"  format="ascii">0 2.5 0  0 0 0  2.5 0 0  2.5 2.5 0  1.25 0 0  2.5 1.25 0  1.25 2.5 0  0 1.25 0  1.25 1.25 0  0 0.625 0  0.625 0 0  0.625 2.5 0  0 1.875 0  2.5 0.625 0  1.875 0 0  2.5 1.875 0  1.875 2.5 0  1.770833333333333 0.7291666666666666 0  0.7291666666666666 1.770833333333333 0  0.9375 0.625 0  1.875 1.5625 0  0.642361111111111 1.163194444444444 0  1.341594827586207 1.883979885057471 0  0.46875 0.46875 0  2.03125 2.03125 0  0.3626104797979798 1.513178661616162 0  1.381740196078431 0.4564950980392157 0  0.9375 2.172619047619047 0  2.172619047619047 0.9375 0  2.096354166666667 0.4036458333333332 0  0.4036458333333333 2.096354166666667 0  1.684027777777778 1.163194444444444 0  0.3418803418803419 0.8693910256410255 0  1.642742622813391 2.162164207604464 0  1.275619849389031 0.8465650753054845 0  0.9136284722222221 1.434461805555556 0  1.732437511238546 0.3406962303960658 0  0.9714402568595876 1.029779313093998 0  1.52281746031746 1.485615079365079 0  2.1875 1.71875 0  1.06819722569879 0.2997236128493951 0  2.136114211309524 1.303478422619048 0  0.3125 0 0  0 0.3125 0  2.5 2.1875 0  2.1875 2.5 0  0.3200021620376328 1.192323085056694 0  0.6738456129277992 0.8304377375553881 0  1.757891808928991 1.861952730357003 0  1.5625 0 0  0.9375 0 0  0.3125 2.5 0  2.1875 0 0  2.5 0.9375 0  0 0.9375 0  0 1.5625 0  0.9375 2.5 0  2.5 0.3125 0  0 2.1875 0  1.5625 2.5 0  2.5 1.5625 0  0.7448220909826522 0.3003573636608841 0  1.027298850574712 1.871151477832512 0  1.331260495098891 2.197262878816185 0  1.207917681892289 1.582765010956622 0  0.4339993447432606 1.801186844743261 0  0.6337298768939392 1.443093039772727 0  2.049851190476191 0.6826636904761904 0  0.6584821428571428 2.219122023809524 0  1.89575676467455 0.9798457973793544 0  1.437570562095628 1.059380588255917 0  1.502090052505845 0.6987070896496241 0  0.2040860661083546 1.705323965099331 0  0.2083333333333333 0.46875 0  0.5070952039991439 0.2211150679997147 0  0.6916302856529919 0.5813591430410241 0  2.265625 1.953125 0  2.2265625 2.2265625 0  1.886424081252096 2.243391360417365 0  1.40625 0.202164758520858 0  0.2269345238095238 0.2269345238095238 0  1.152730869673694 0.5225850378741401 0  1.885631899587912 1.312095130148776 0  1.614808884009367 0.9049784971014416 0  1.890095442220658 0.5126535558463003 0  2.323168682795699 0.46875 0  2.268811725689575 0.2304742875213018 0  0.6002389442105756 1.967426444210576 0  0.1768313172043011 2.03125 0  0.2311882743104251 2.269525712478698 0  2.03125 0.176831317204301 0  2.280262553344767 0.6954945504579233 0  1.979219539285994 1.809922269642997 0  2.336309523809524 1.09375 0  1.09375 2.336309523809524 0  0.9314042474388009 1.662973812215543 0  0.1634067999087722 1.40625 0  2.337090640094896 1.40625 0  1.141616997467638 2.069311773587991 0  0.46875 2.338939559681489 0  1.542440307908715 1.734944797244472 0  1.556713687786879 1.956977865354753 0  0.8264238995344066 1.975424467820646 0  1.466326331454725 1.275271369760862 0  1.655675324257095 0.5444159974393489 0  0.3385416666666666 0.6479255698005697 0  0 0.78125 0  0.5236073939200119 0.984090461540625 0  2.091665741047893 1.519793517904215 0  1.71875 2.5 0  0.5356538886262603 1.623137930505009 0  0 1.09375 0  0.1932884281517095 1.015625 0  0.8569313582417669 1.2198915584249 0  0.8876981284879677 0.8329884081524883 0  1.115618488474214 0.7219586973356271 0  1.186950366204949 1.043465130075318 0  2.057459118787237 1.110823087309335 0  1.830651283878689 2.049810069572418 0  1.689107969301489 1.367247437031697 0  0.4921048768039656 1.298643370653124 0  0.8213975694444444 2.336309523809524 0  2.03125 2.5 0  1.049729400480002 1.283723261332814 0  1.308101375801673 0.6489479469700392 0  2.5 2.34375 0  0.4968777175037714 0.7562964879736076 0  1.40625 2.5 0  1.501347663534097 2.307027627307738 0  1.602813712048603 0.1926218191360736 0  0.8393082906308107 0.463778306132633 0  1.682663349152719 1.598471865581041 0  0.7774174680851571 1.560004941327907 0  1.554204170364662 0.3898593897892066 0  1.842184459051087 0.186443880058197 0  1.358107417651776 1.696381759610015 0  1.18859291992392 1.77598670078022 0  0.1875331222687418 0.7609599743339348 0  1.339536743965101 1.422080365801479 0  0.7788179348750389 0.9955343414928611 0  0.9062978492805438 0.1919636509126373 0  1.256007360640958 0.3160320559396114 0  1.09375 0 0  1.174986727221844 0.1594990293443933 0  2.34375 1.796875 0  2.318026474511116 1.589177949022232 0  2.34375 2.5 0  1.672742954892153 2.332882724550692 0  0.2683637361947215 1.874801596909639 0  2.174770749820102 0.5581009131310781 0  1.443279522965991 0.8870068372898454 0  0.3385416666666667 0.3571428571428572 0  0.78125 0 0  2.060421048269335 2.314363248763811 0  1.088078737088509 0.8967352118723447 0  1.087825368444708 1.454931510884769 0  2.018308232129541 0.8548495425854904 0  1.943987311736842 0.3246298523011434 0  1.71875 0 0  1.85337849796276 1.144833312386208 0  2.3486328125 2.1044921875 0  1.407588788651747 2.042968789119587 0  2.336309523809524 0.865366648092144 0  2.34375 0 0  2.5 0.15625 0  0.15625 2.5 0  0 2.34375 0  0.1638044648294291 1.242263417405867 0  0.356216654757926 1.032569427322806 0  0.3188217956111817 1.355736727000647 0  0.5924956460852111 0.36112522004736 0  0.6594216488965849 0.1603472116132387 0  1.841804599497131 1.72214349266521 0  0.15625 0 0  0 0.15625 0  2.115898634821499 1.894570904464496 0  0.7821877980253907 0.7129993435924866 0  1.003820447087786 0.4516053462784233 0  0.477562948779147 1.138333049293613 0  0.719493678605015 1.305655360135975 0  0.9772457618587566 2.020350128938537 0  0.8764738248887107 1.826219722709673 0  1.254787875123819 2.339010653832026 0  2.343597354852534 1.249982759769001 0  0.78125 2.5 0  0.46875 2.5 0  2.5 1.40625 0  1.09375 2.5 0  2.5 0.78125 0  2.5 1.09375 0  2.03125 0 0  2.5 0.46875 0  1.40625 0 0  0.46875 0 0  0 0.46875 0  0 1.40625 0  0 1.71875 0  0 2.03125 0  2.5 1.71875 0  2.5 2.03125 0  2.005424054645407 1.653223486966518 0  0.1538730573856537 1.559850281736677 0  2.33984375 2.33984375 0  1.166539506212474 1.922878979538754 0  0.3914885633949916 1.65887232812171 0  0.5795503163042564 1.766243562569382 0  0.399533125920212 1.946786875081388 0  0.7866324979014098 2.127719094551316 0  0.3654683023546834 0.1495701132219454 0  0.1527388747131078 0.6116379440619215 0  2.013737577140188 1.391056634712135 0  1.17635437372994 2.213329084238133 0  1.737118141866284 1.010577140843115 0  2.200707118087222 1.164723314085963 0  1.697018908736685 1.993548551451517 0  0.5387621649009668 0.6070503962352419 0  2.032805785855952 0.5330427622570983 0  1.082699501358059 1.667818725183932 0  1.503819781540653 0.5468420196858188 0  2.015409142866072 2.175941657590429 0  1.752057611265444 0.869642097111018 0  0.612251684107783 2.356045720700959 0  1.902817102342857 0.6607642211999982 0  2.159616561739693 0.7867739969338844 0  0.5120038350106624 2.197302352398502 0  1.888200216011548 1.919501662489862 0  1.495909909726654 2.16028358757309 0  0.489139876703609 1.443203008943564 0  0.8819175670410521 0.3301172743913011 0  1.882591144370812 0.8155965192707721 0  1.133979796994841 1.172526771862882 0  2.206217447916667 2.084147135416667 0  2.20361328125 2.36279296875 0  1.395746985657004 1.556054166359645 0  1.704383111516207 1.734750450338683 0  0.9575737847222222 2.36274223823052 0  1.035150984253136 0.1302833343179028 0  1.383966125325753 0.7651479963479179 0  1.64003252158672 0.6824316405528895 0  2.22550785055421 1.487078576356817 0  1.760964431499756 1.48495222505201 0  1.276460980673788 2.004207003584658 0  0.1341477688427096 1.828777507920502 0  1.542261434180652 1.155296658359034 0  1.334627911613854 0.9696897472490321 0  1.30794231473696 1.119420615785191 0  0.7028260459857245 0.4438906910721139 0  1.625757433094055 1.84268057552138 0  0.9818707849053143 1.165603626132254 0  2.0086489901463 1.243134585689553 0  1.934584460420609 2.374094051915812 0  1.798434376789567 2.38671361912528 0  1.206314791201715 1.382064292497919 0  0.6333752893366955 0.7023738550008095 0  0.7796219811205605 1.42573253164258 0  1.564399711917382 1.026040828857629 0  0.3385416666666666 0.4889012896825397 0  0.1041666666666667 0.390625 0  0.989112246382566 1.543537365516289 0  2.025724425454636 0.9846960595520872 0  0.6602885475034063 2.086117390485779 0  1.607130551925032 1.267198646640915 0  0.1317864544877056 0.8896173683400176 0  1.755387840017567 2.230364320056445 0  1.301540702984401 0.1216289692748247 0  1.433170657577442 0.3331052752740999 0  1.500459610550388 0.113513924782439 0  0.6494291520606965 1.029586599619295 0  1.010146149868299 0.794897284196169 0  0.3700844198238017 2.235390157870766 0  0.3360891767780704 2.36656279435396 0  1.876856241037701 1.437150669863757 0  1.778674102957329 1.245979347269706 0  0.5472829890977179 0.1005517127039925 0  0.4669074189005698 0.3416784232954367 0  1.472765289289269 1.850899166481903 0  1.555853593327178 1.608452097912802 0  0.6708955559113426 1.646561631116984 0  0.8164699620322933 0.5924479455478063 0  0.3167738989468366 1.758696809749795 0  0.2788007305565096 1.605499483471246 0  0.7821720982350511 0.181524936294752 0  1.376812251214195 2.313340247908297 0  1.785652202614777 0.5962261755537186 0  1.761467296310972 0.4679567244718574 0  2.2265625 1.8359375 0  2.3828125 1.9140625 0  0.5279531607054191 2.071552361614785 0  2.397573269551114 0.234375 0  2.383578172599618 0.3589298466020009 0  0.1024267304488855 2.265625 0  0.1164218274003825 2.141070153397999 0  0.2696857594953064 2.135405441512016 0  2.164961300137334 0.1375322943529536 0  2.137757548369486 0.2724194778647587 0  2.238873711826398 0.3626419179496562 0  0.1001414910226386 0.234375 0  0.2176339285714286 0.3478422619047619 0  0.2503620791333544 0.1061694061057066 0  2.336445461915368 0.1250451055247424 0  0.2154004640409726 2.3918124
[...]
<PointData  Scalars="f_16-0"> 
<DataArray  type="Float64"  Name="f_16-0"  format="ascii">9.8660901210497796e-05  2.2042196297493261e-05  1.1703276629535643e-06  3.6246012049773260e-05  1.9188086666917671e-05  4.2006997904732989e-06  1.1374775685646816e-04  9.8963321800783028e-04  1.1787679119663983e-03  1.0051990512587863e-03  2.7254125352399803e-05  1.0867498332603401e-04  6.6468855044202906e-04  8.1069364779785396e-07  8.7545114023879473e-06  5.7464109428516152e-05  1.4018352803793453e-04  1.3984745541064348e-05  7.9567086605120531e-04  3.9675450574216931e-04  4.8018088598007319e-04  1.2126294412998901e-03  8.7820227391678250e-04  1.6399465373223739e-03  4.2412868050465254e-04  9.4004859883630039e-04  1.9428688760629118e-05  3.6270750785954921e-04  5.3368454935782068e-06  4.5696122055865783e-06  4.2808676749975455e-04  2.3635389410614578e-04  1.1291711018137618e-03  4.9404916281704054e-04  2.7723469615881843e-04  1.2068166969213755e-03  1.1047164528228614e-05  1.3677371973427692e-03  1.0075890202918822e-03  1.9955391204835361e-04  2.4091626469873997e-05  5.4864437650995253e-05  2.8085077854733321e-05  9.2931373053302087e-04  6.7355770140625122e-05  9.0126608940671674e-05  1.0005411302461203e-03  1.6471219285526797e-03  8.0457204648347715e-04  1.4205816078577657e-05  2.3424353528779315e-05  9.5992385585148159e-05  3.6814740435230668e-06  9.2776373313585538e-07  1.0018340274203135e-03  9.1955390686675425e-04  1.0592467695679379e-04  9.4353149886593307e-07  3.1923464085589260e-04  1.2781196128381926e-04  2.3746362712360424e-05  6.3608619712947155e-05  7.3291318400675555e-04  3.6904595775053803e-04  1.2369440141909072e-03  7.6506638008769180e-04  9.9688935322097584e-04  5.4187122040493211e-06  3.0103217435838598e-04  2.7796732688739334e-05  3.9546335966509369e-04  3.3796575310469911e-05  8.4017901177094298e-04  1.8164620294860256e-03  1.3046999195745287e-04  1.0122897274948384e-03  1.8686363578804586e-04  1.7892945374563198e-04  3.4235016956463620e-04  1.6909505224638923e-05  1.9552817941347468e-03  4.8914441626815148e-05  1.9667673046539768e-04  7.5531615675000110e-05  8.0812123440694395e-06  1.8244355235329606e-06  2.5186139653781952e-06  5.9104402088237915e-04  4.9227089719294315e-04  2.4124885176999262e-04  5.7912826760040321e-06  2.2185236964118727e-06  4.9789827026187623e-04  4.3943462258862013e-06  2.0632695314598182e-04  9.4963661932896183e-04  9.6931919198770488e-04  2.8908918569533972e-05  4.9972778976158723e-04  1.9384035423542146e-04  1.0654246534658077e-03  8.0845286763933037e-04  5.9274742909403257e-04  7.6032004953345566e-04  1.3682584264060530e-05  1.5806797697347039e-03  1.0043299636758964e-03  1.2696358985684877e-03  1.7488461157178612e-04  1.4279154871937714e-04  8.9225134178817376e-04  9.9779991402074381e-04  1.0035223131166090e-03  1.3935249634515594e-03  1.1696256217062617e-03  2.8019332839436441e-04  9.0861100533565567e-04  2.6946674959167902e-05  5.8198928579333083e-04  5.1029209419378881e-04  1.0110772665175632e-03  2.0180983306052370e-04  1.2503383565047200e-04  1.4034381859001697e-03  5.7197864038240656e-05  5.3546633609804122e-05  1.6649958345546598e-03  1.1736319957083534e-04  2.7141084045552503e-04  1.3525069600176778e-05  1.9406131590859235e-04  8.4154539705091002e-04  9.6832437221882391e-04  1.4809440986151790e-05  8.8782103633269526e-06  1.1570467236732443e-03  9.5897913746203893e-04  1.0478508251232836e-03  1.2177667743590035e-03  1.5483930701613248e-03  2.4838314576699269e-05  1.9875071508877763e-05  2.1330171213560671e-05  2.0572624748233855e-05  1.0770027867234399e-04  7.2399992892024454e-05  5.9787954083393746e-05  2.7188052335062554e-04  6.8798763505644432e-04  3.3088013382202446e-06  1.5506338000767750e-04  1.9779091623414492e-03  2.5310714851199505e-05  2.1504847487964607e-04  7.7504359357691570e-04  1.3097391643986751e-03  8.1741699624765049e-06  7.0769694812831952e-06  1.1596289876136314e-05  9.5733455133949178e-05  1.3202780451921210e-04  6.2245154667995792e-04  1.8514848201112455e-06  2.1694288689099044e-06  1.0883992376895595e-06  9.7895291785677689e-05  1.7054777711059452e-04  9.8957602200870957e-04  1.0434593419288976e-03  9.7774367197590905e-04  3.8088271351698739e-04  3.1694948581663879e-05  6.6923111903551002e-04  2.0144653559425453e-05  1.9298387200713542e-04  3.3215164156015985e-04  1.1415929163901054e-03  6.5245526629076599e-05  1.0718030606086881e-03  1.1528629490817613e-03  5.4744647601885415e-04  7.5712798921756942e-04  2.1630534045999242e-04  1.0740540917039268e-05  1.0624672286927964e-04  9.8455943413477878e-05  1.0506697180528942e-05  1.0834219124877630e-04  8.4102813937011134e-07  1.5924787914187255e-06  6.0836868102875966e-06  8.4319292593348102e-07  1.6602506309043232e-05  2.9095061012683050e-05  1.0009847514444981e-03  9.6958567822971785e-04  8.2611880457085507e-04  5.0223269278984787e-04  4.1363708808411579e-05  6.7178212397838859e-05  3.6177144043119915e-04  9.2064445151410917e-04  9.4587356209949159e-05  7.1663907609492705e-04  8.7749821317321020e-04  7.9231903753834373e-04  6.1147288818846435e-04  4.1063289219289061e-04  1.3251078760042972e-04  1.0948596600920705e-03  1.5625896086219788e-04  3.3669787658951230e-04  7.7751093812546579e-05  1.5121889004211519e-05  7.3792160739606617e-04  1.7615465311714509e-03  5.5690959297455844e-06  1.0477499048271450e-03  1.8058232244900549e-05  3.3743825682406106e-04  2.8266894048090657e-05  1.8158881564103011e-04  8.3863622740505332e-06  3.9275523483793689e-06  3.2406983809879893e-04  6.2663504059246174e-04  4.6211477673991605e-04  9.6597985915851869e-04  4.4383931979330737e-05  1.1837198499105147e-05  1.2792498020463934e-03  2.3337547925477722e-04  1.2920030240961707e-04  1.2093286029861326e-03  8.8495552365205931e-04  1.8003108198649058e-04  2.2415129388588715e-05  9.2468551630154718e-05  1.8086252285281248e-05  8.1896371527011402e-05  5.7408934525322148e-04  6.3930824854328979e-04  7.3558196093329812e-04  3.9561764122128957e-04  3.9458857425119713e-04  7.8205803007994621e-04  4.0962245593857222e-04  9.3998764805597562e-04  1.4442804882089523e-03  8.1122310865214714e-05  2.1236723118458079e-04  2.1588671691533470e-04  1.3359310369320504e-03  1.6455687574205972e-03  1.0884817121484525e-03  1.9747028921889343e-04  2.1768136625436494e-03  1.3949162747973526e-03  1.1345509898485573e-03  1.4097419934210058e-05  4.4718503400703976e-04  4.8383663591129554e-04  1.0060498179431576e-03  3.9543877582336412e-04  1.8495947077793111e-05  1.6858417641523328e-05  1.5235959172593787e-05  1.4025822374440998e-03  6.9419372872151809e-04  2.8218748040220314e-04  1.6467884114280916e-04  3.2710265827106435e-04  2.3305426965203075e-04  3.1125255162774825e-05  8.0747997364014718e-04  9.7333888749024375e-04  1.0467134869841820e-03  8.8170619419419957e-04  6.2486300421501324e-04  8.0126353825078842e-04  9.0355578313106087e-04  2.8129017825208352e-05  2.4664353973365258e-04  1.0848863550109938e-05  1.0686265715571071e-05  2.0749876286908845e-04  1.0318729759125073e-04  4.6606252811701941e-04  1.4217841394497661e-06  1.4767740509086903e-06  2.4622673358131261e-04  3.7988413976872983e-04  3.8336112079404705e-04  3.8360647945995168e-06  4.1233373696861173e-06  2.8481668701534866e-06  4.3756945936444759e-03  2.7444694545171468e-03  1.1348820162827288e-04  1.9971922236179961e-06  1.4587122932863765e-04  3.1703367776862821e-04  2.0862835238289850e-04  1.1386611587126988e-05  1.6712368190805395e-04  2.5385497431794619e-05  3.0534078998698794e-05  5.5536189560220946e-04  7.7023323207638030e-04  1.4125862288198493e-03  5.9913767380713587e-04  7.5438717970778059e-06  1.4584859371591833e-06  1.3626602318820020e-06  9.9769183573068435e-05  1.0093918906420828e-03  6.6849312666391908e-04  6.7167094577639142e-04  5.8408929995750298e-05  1.5181144456831647e-04  7.9144979885413741e-04  8.9887214666641507e-06  1.3530507938789311e-03  8.7839527083241283e-04  8.4638214798086629e-04  3.5266989162817273e-06  2.4575536539885936e-05  6.9075606969454297e-06  4.4706233336759299e-04  9.9732484641656266e-04  1.8736319109260644e-06  1.0094163787539921e-03  1.0797268130600631e-03  3.2977055913520061e-04  4.8901637610985289e-04  6.4026502185327763e-06  1.4901356857700685e-04  9.5704212330253590e-04  9.8216699809760915e-04  2.4922704239825533e-05  3.1317186832605646e-05  1.5065801705462217e-03  1.2884586795097736e-05  2.8548090249425014e-05  4.5160878543133286e-04  1.0018837964619471e-05  4.8193737733342349e-05  6.4702571807830956e-04  6.6222636193307425e-04  1.5178427851953406e-04  1.3561043209793821e-03  1.2037773099619362e-03  1.9750566150955559e-03  1.5597594418480462e-03  1.2881738629457208e-05  8.8123133203427215e-04  9.9410897340902900e-04  1.0346775682334471e-05  3.8588726746308720e-06  1.5160646934994984e-04  1.3956958905659010e-04  5.5689317190862709e-05  3.0854936285089308e-04  9.5224632175307675e-05  2.5113612421605414e-05  1.3475290928641206e-04  1.4966951541302256e-05  5.7844498237026002e-04  4.8038159238307548e-04  6.5385182176467432e-04  1.0728617575553059e-03  9.5224330421840142e-04  6.1328540970622108e-04  2.6860784805976990e-04  1.1523880415271071e-03  1.2966297290013579e-03  5.8970354926028874e-04  1.6131993388916323e-04  1.5244534359508625e-03  8.2837004025239250e-04  1.4380555116770201e-03  1.1382747723749362e-03  7.6032065234443369e-06  1.2333151748071594e-03  8.9035793399626947e-04  1.1920186812224877e-03  6.2082358946311390e-04  4.3000776038280446e-04  3.1967217428964528e-06  1.0580542246418113e-03  2.2567041696143309e-05  9.5607492153714044e-05  2.9725037405356654e-04  1.0263144656631762e-03  1.4423103447821558e-03  2.7991084396711475e-04  1.0448764407146951e-03  1.2943255398686959e-05  1.1133681976230423e-04  1.3374210158415411e-03  1.0892791486131639e-03  1.0010133571186691e-03  3.5341390511673684e-05  1.1170584207491179e-05  1.2763866562481513e-03  3.7156510530108241e-05  2.0953024353300941e-04  9.3236978259149405e-04  1.6029932003853047e-03  1.5259643318155688e-06  9.4350879253030033e-05  1.7362278781405554e-04  3.9510687854869033e-04  3.2338249850563715e-06  8.4000884845589435e-04  9.2647762188397063e-04  3.4747546975741686e-04  1.8133416244523934e-03  1.1958878479584600e-03  1.0216685768642412e-04  1.3376129062643248e-03  8.0639125224267211e-04  6.5382095777861526e-04  3.7534819744815197e-04  1.0088608692654672e-03  1.0107438503221679e-03  7.1072734867443066e-04  7.5058268513921713e-04  7.0788091475357533e-04  5.3904227993661045e-04  2.6203082203985772e-05  1.3131880479643971e-03  1.4033740524873421e-04  2.3007080415185085e-04  5.5828273663792307e-06  1.9275361984200069e-05  5.4909396693999569e-04  1.6888629224195183e-05  6.2412374056750703e-04  2.6183999094771256e-05  2.3019673018524519e-06  8.1764736703179798e-04  1.0869121529286868e-03  9.4857156930071826e-06  8.5052735215396279e-05  1.5967512553254867e-03  9.8495059920174666e-04  4.1837786095416123e-05  2.6504079671576508e-05  2.8729573430275381e-06  1.1026197362335320e-03  9.9802092958444508e-04  3.4333947497332588e-04  1.2928948800355089e-04  3.0959955087683032e-06  1.0444224557922697e-04  4.2084605440516451e-04  1.5003372024968435e-03  1.3715117768665650e-03  1.0066328607428569e-03  1.0869002835094731e-03  1.7322359661483238e-05  9.8761624393339928e-04  4.7198441780382538e-06  5.2386695235195404e-06  9.7952073379585351e-04  2.5437065596040879e-04  1.1539719656177387e-03  1.4907126353974639e-05  1.1961948227708161e-03  7.1762360720166048e-06  1.3707714407182534e-04  2.7266581957437230e-04  2.1111061218904618e-05  1.8757775699250513e-05  1.8139460532683488e-05  1.0170528050680609e-03  8.5319943651340801e-04  1.2258595685328329e-03  5.2486970360806192e-05  9.6573368263947682e-05  2.7447183811511543e-04  1.9061931666035880e-04  2.3985920906053192e-04  1.0940595861298997e-03  1.3458152030535063e-04  5.0088997667378267e-04  2.1966752134976933e-05  1.2561696989527955e-03  3.8989915071176065e-04  9.7638347104494366e-04  1.6726117134891547e-05  2.5106940948532621e-04  1.4481222423057212e-04  8.5381128443679069e-07  4.8241791221838117e-05  1.1040528997687649e-04  4.4136072748495570e-04  6.4474172193747128e-04  3.2212716275174368e-04  6.4536664362785361e-06  2.3515627229630953e-04  1.0339041343035275e-03  2.9567702367260083e-05  8.0458824794584974e-07  1.2030982827933195e-06  1.4691077237802164e-04  2.3433537436688141e-05  7.2781364865615885e-04  7.6823812775806408e-04  3.5868662130146938e-05  1.7390287957392276e-04  3.4748788837211508e-05  4.9716605768043026e-04  1.5199772329628112e-04  1.1158520624506706e-03  5.3298602211167154e-05  7.5141668522631664e-04  5.6694326499012466e-04  1.3192821132051785e-04  1.4275309346738403e-04  2.1282130720907356e-05  3.3351985716689499e-05  9.2714280067518180e-04  2.1065545382966541e-06  3.2107703554047645e-04  6.8865378876756104e-04  1.2097490734419480e-04  5.8278113092788173e-05  5.1719029736312008e-04  5.0308435388956641e-04  2.8655794458329499e-04  4.3813266806326456e-06  1.9716265687553818e-05  8.2857347627181353e-07  7.6190960159460868e-06  5.6653608393503014e-06  1.3962958574184690e-05  7.5893151570555586e-05  1.4849740287654735e-04  6.4477712733572966e-05  1.1469494336777122e-06  3.9846247502442489e-04  4.2199285839953417e-06  1.0086515013672968e-03  1.0330000497982370e-03  1.0915045795428765e-04  3.7006555724522429e-04  1.9258627597315233e-04  3.3797133473843012e-04  9.2698881836391695e-05  1.7300120643343086e-04  2.3571711701765347e-04  2.6981611829631077e-04  2.0574023604457876e-06  3.2496566861485882e-04  8.4651618706980361e-04  6.8687109913391663e-05  4.8543652622737494e-04  2.3254943291845808e-04  2.8131340834179789e-06  2.0756840795887032e-03  2.4250283717438936e-03  1.7036437199778754e-03  7.9019982772369590e-04  1.4166317034746752e-06  6.7356119243757297e-04  1.0031356806756760e-03  1.1618358844529938e-06  1.9279388929525868e-04  1.5120644594673139e-05  1.3338325377354968e-05  4.9361156608190957e-04  7.3563738310866817e-05  1.1211828238660952e-03  3.0864329167143315e-04  9.5548505452859947e-05  1.0603273586381392e-03  9.4082934953367123e-04  1.1222282885937544e-03  1.7296240219754728e-05  1.2466504486970277e-06  7.9726668059499099e-04  8.4366677913100014e-04  4.4308053964973085e-05  2.9618673800641713e-05  6.3063700690979281e-05  1.2310407871425459e-03  1.0211894531867217e-03  1.0526114297659908e-03  9.8380736209582550e-04  9.9079590971914815e-04  6.6389462374712540e-04  4.2955915489014171e-05  5.0106227590173911e-05  1.8694948494840847e-05  7.0322134114416204e-04  9.7668825841285196e-04  1.9727282451806593e-04  2.8046075686964402e-05  4.9341097818955803e-05  9.5337966485205521e-04  2.8456057970640338e-04  2.3650951818949553e-06  1.1383014277476615e-06  1.3033661477163570e-03  1.2457707760828941e-03  5.1836645979081212e-04  9.6235112368735708e-04  2.7352944884928608e-03  7.9701663459197164e-04  8.3750789893320297e-06  2.2475069639045192e-05  2.4741012161813705e-04  2.5299993937366804e-06  1.7700649009644125e-04  7.3790947760663927e-04  2.6215730783722165e-04  5.4960806505115840e-04  3.8756184634523502e-04  6.6449106559206636e-05  2.7922542100186762e-04  2.0841923020632102e-04  2.1624741329567955e-05  3.0146696359527366e-05  3.7636203302550961e-04  1.7879082200227900e-05  1.2674543372772040e-04  2.4352039767683627e-03  3.9575540753752117e-04  1.1027036568626821e-06  1.2480131878882096e-03  1.5141204678465840e-03  5.6971522160263731e-05  2.6549939751524711e-04  9.6518280749692065e-04  2.9311433272901783e-05  1.3750290513288039e-04  4.2792703537316823e-05  3.2818454261351457e-06  5.5252351302821876e-06  2.3351708618047321e-05  1.5757994343605750e-05  1.8684518625150797e-03  8.5315724388858468e-04  3.7787714642806064e-04  5.0069037358674718e-04  7.3885683849762341e-04  4.5119471235263925e-04  1.1406723411118581e-05  9.5934317389034611e-04  1.4237592112520936e-03  1.0172563576793495e-03  2.5228478533888856e-04  1.7850661168568615e-05  6.4190488190787072e-06  3.9892874973239233e-04  9.8961501479671215e-04  1.5500932824620044e-04  3.4121690046533315e-05  2.0225898697443321e-05  7.2772322237072191e-05  1.0699084331528032e-04  1.0968630961509441e-04  1.2729676300031221e-04  1.0000072873887352e-04  1.1340906538620803e-04  8.8076656878556731e-04  1.0852935912358911e-04  3.3081057218446145e-05  9.9917403147807949e-06  1.2969687612861148e-05  2.4828833628184718e-06  6.5046175660275463e-06  1.6430174975724065e-05  1.0000649488029615e-03  9.9431282593512955e-04  9.8254811008219160e-04  1.1085909974373942e-04  1.0053894717333724e-03  2.4348700941975918e-05  7.4182963492717281e-06  5.9338221381405331e-04  9.6329503706640206e-05  2.4370157794196375e-05  2.3248202745394071e-04  1.0019551798496251e-06  2.8335304165547904e-05  1.5556153911320065e-05  7.8099235686000432e-04  9.8519147577669306e-04  1.4398762261752561e-04  6.0903683743673214e-05  4.4295257692793979e-05  4.4836309237750277e-05  9.4681945469011694e-04  1.1992982641264041e-04  1.0045802767553913e-03  5.0038720190639910e-05  6.9474411431249780e-05  8.8781427640248921e-07  9.3719657042690883e-06  3.5785585439395681e-04  1.0507155755785029e-03  1.3667400892568117e-04  2.4543479242384521e-05  1.5330729029883677e-04  1.3012377711820826e-03  1.8055558084770012e-03  1.7847090148047353e-03  1.6240755015160417e-04  3.1389060422418005e-05  1.5382368594322028e-03  1.0165185153708694e-03  5.2024882204231406e-04  1.2682136854007696e-03  8.3855315210373769e-05  4.5754727547225215e-04  9.5301575250113365e-04  9.2314336124802397e-04  8.9286270019080195e-04  9.8075323566820067e-04  1.0574461198791278e-03  1.3013436924380324e-03  8.1698159458375502e-06  9.2900929444771985e-04  6.3787576308090314e-04  2.9529088105080111e-05  1.7010955217830574e-03  1.7747813174718637e-05  9.3264545856705701e-04  5.1469452494968344e-04  1.3784093019695172e-03  1.0791776000127562e-03  1.1853882497088995e-03  5.6976665073502433e-04  1.8479977388829160e-05  1.4607566620791484e-03  1.4756921002922350e-03  7.5210889078932161e-06  3.7821814590436524e-06  1.4215982557984233e-03  4.5729218973237716e-06  2.9479474821552610e-06  1.0991247687654666e-03  1.4390023307445129e-04  6.5718779444225910e-04  3.4677194893382470e-04  8.0892827315646315e-04  1.1797837350019292e-04  8.5889467509183770e-04  8.2250019027966116e-04  5.2419983280374333e-04  2.1191295190557867e-04  1.3608856813121178e-04  1.5439478623096504e-04  9.3055028386093805e-05  3.7994133588674855e-04  9.7004961104099933e-04  5.4285864470220776e-04  7.8004402094852484e-04  1.5142632696130595e-04  6.9499735744036923e-04  6.5287094007480018e-04  2.1631333350850726e-04  2.4888795764416405e-04  1.0568826880378553e-05  8.7823232638419541e-06  4.6440422059471488e-04  6.0421363677483483e-04  9.1195256703944822e-04  8.9487466895579650e-04  8.2848212458103544e-04  8.8635972681558111e-04  3.5978114720335567e-06  2.7677826834081331e-04  2.7017936857359900e-04  3.0555256697194368e-04  3.4257239766872897e-04  2.6590543442472496e-04  2.8822528816207859e-04  8.3455192376590286e-04  1.6247403234144624e-05  9.8310653220795284e-05  1.2915625347622076e-06  5.4615338059134673e-05  9.4028002108031430e-04  1.0340209151974405e-03  9.9265402674538492e-04  5.9990229147725491e-04  6.3263353452332039e-06  1.1595624764137176e-03  1.8034110673116935e-05  2.7736696525263165e-04  1.4473667694306501e-03  7.9818093363667292e-06  3.7984476339397201e-04  3.6111832369094049e-04  9.2167099745104199e-05  4.4363972936975713e-06  1.2448779293835503e-04  9.6209132634940484e-04  1.2106622642934963e-03  8.6062035482084109e-04  9.9514695471903422e-04  7.5800919921113633e-04  6.5724301915438300e-04  7.3395732390514254e-04  1.9405475842972579e-06  2.9665070378714532e-05  1.1609306165172946e-03  9.7675338605364165e-04  9.8807861840475978e-04  2.3915840286226631e-04  1.3625935705509809e-04  6.7415019902537901e-06  1.1901704381879710e-04  6.9756752836883780e-06  2.4492907906430461e-06  1.6743765102512356e-04  4.0849914931972222e-04  1.4252441374987918e-05  1.2643864222405308e-04  4.8668317455788691e-06  7.4488358375278776e-04  2.2718505447195657e-04  2.9640872653110650e-04  3.6671495639877829e-04  2.1141123100925011e-04  4.1363407720243