<?xml version="1.0"?>
<VTKFile type="UnstructuredGrid"  version="0.1"  >
<UnstructuredGrid>
<Piece  NumberOfPoints="6486" NumberOfCells="12696">
<Points>
<DataArray  type="Float64"  NumberOfComponents="3"  format="ascii">0 5 0  0 0 0  5 0 0  5 5 0  2.5 0 0  5 2.5 0  2.5 5 0  0 2.5 0  2.5 2.5 0  0 1.25 0  1.25 0 0  1.25 5 0  0 3.75 0  5 1.25 0  3.75 0 0  5 3.75 0  3.75 5 0  3.541666666666667 1.458333333333333 0  1.458333333333333 3.541666666666667 0  1.875 1.25 0  3.75 3.125 0  1.284722222222222 2.326388888888889 0  2.683189655172414 3.767959770114943 0  0.9375 0.9375 0  4.0625 4.0625 0  0.7252209595959597 3.026357323232324 0  2.763480392156863 0.9129901960784315 0  1.875 4.345238095238095 0  4.345238095238095 1.875 0  4.192708333333333 0.8072916666666664 0  0.8072916666666665 4.192708333333334 0  3.368055555555555 2.326388888888889 0  0.6837606837606839 1.738782051282051 0  3.285485245626782 4.324328415208927 0  2.551239698778062 1.693130150610969 0  1.827256944444444 2.868923611111111 0  3.464875022477093 0.6813924607921316 0  1.942880513719175 2.059558626187995 0  3.04563492063492 2.971230158730159 0  4.375 3.4375 0  2.13639445139758 0.5994472256987903 0  4.272228422619047 2.606956845238095 0  0.625 0 0  0 0.625 0  5 4.375 0  4.375 5 0  0.6400043240752655 2.384646170113389 0  1.347691225855598 1.660875475110776 0  3.515783617857982 3.723905460714006 0  3.125 0 0  1.875 0 0  0.625 5 0  4.375 0 0  5 1.875 0  0 1.875 0  0 3.125 0  1.875 5 0  5 0.625 0  0 4.375 0  3.125 5 0  5 3.125 0  1.489644181965304 0.6007147273217681 0  2.054597701149425 3.742302955665024 0  2.662520990197781 4.39452575763237 0  2.415835363784578 3.165530021913244 0  0.8679986894865213 3.602373689486522 0  1.267459753787878 2.886186079545454 0  4.099702380952381 1.365327380952381 0  1.316964285714286 4.438244047619047 0  3.7915135293491 1.959691594758709 0  2.875141124191255 2.118761176511833 0  3.00418010501169 1.397414179299248 0  0.4081721322167092 3.410647930198662 0  0.4166666666666666 0.9375 0  1.014190407998288 0.4422301359994293 0  1.383260571305984 1.162718286082048 0  4.53125 3.90625 0  4.453125 4.453125 0  3.772848162504192 4.48678272083473 0  2.8125 0.404329517041716 0  0.4538690476190476 0.4538690476190476 0  2.305461739347387 1.04517007574828 0  3.771263799175824 2.624190260297553 0  3.229617768018734 1.809956994202883 0  3.780190884441317 1.025307111692601 0  4.646337365591398 0.9375 0  4.537623451379149 0.4609485750426037 0  1.200477888421151 3.934852888421152 0  0.3536626344086022 4.0625 0  0.4623765486208503 4.539051424957397 0  4.0625 0.353662634408602 0  4.560525106689535 1.390989100915847 0  3.958439078571988 3.619844539285994 0  4.672619047619047 2.1875 0  2.1875 4.672619047619047 0  1.862808494877602 3.325947624431087 0  0.3268135998175443 2.8125 0  4.674181280189791 2.8125 0  2.283233994935276 4.138623547175983 0  0.9375 4.677879119362977 0  3.08488061581743 3.469889594488945 0  3.113427375573758 3.913955730709506 0  1.652847799068813 3.950848935641292 0  2.932652662909449 2.550542739521724 0  3.311350648514189 1.088831994878698 0  0.6770833333333333 1.295851139601139 0  0 1.5625 0  1.047214787840024 1.96818092308125 0  4.183331482095785 3.03958703580843 0  3.4375 5 0  1.071307777252521 3.246275861010018 0  0 2.1875 0  0.386576856303419 2.03125 0  1.713862716483534 2.439783116849799 0  1.775396256975935 1.665976816304977 0  2.231236976948428 1.443917394671254 0  2.373900732409897 2.086930260150635 0  4.114918237574474 2.221646174618671 0  3.661302567757379 4.099620139144836 0  3.378215938602977 2.734494874063393 0  0.9842097536079312 2.597286741306247 0  1.642795138888889 4.672619047619047 0  4.0625 5 0  2.099458800960004 2.567446522665629 0  2.616202751603346 1.297895893940078 0  5 4.6875 0  0.9937554350075428 1.512592975947215 0  2.8125 5 0  3.002695327068194 4.614055254615477 0  3.205627424097207 0.3852436382721472 0  1.678616581261621 0.927556612265266 0  3.365326698305438 3.196943731162083 0  1.554834936170314 3.120009882655813 0  3.108408340729323 0.7797187795784133 0  3.684368918102174 0.3728877601163941 0  2.716214835303553 3.39276351922003 0  2.37718583984784 3.551973401560441 0  0.3750662445374837 1.52191994866787 0  2.679073487930202 2.844160731602957 0  1.557635869750078 1.991068682985722 0  1.812595698561088 0.3839273018252746 0  2.512014721281916 0.6320641118792227 0  2.1875 0 0  2.349973454443689 0.3189980586887866 0  4.6875 3.59375 0  4.636052949022233 3.178355898044465 0  4.6875 5 0  3.345485909784306 4.665765449101383 0  0.536727472389443 3.749603193819277 0  4.349541499640203 1.116201826262156 0  2.886559045931982 1.774013674579691 0  0.6770833333333334 0.7142857142857143 0  1.5625 0 0  4.120842096538671 4.628726497527622 0  2.176157474177018 1.793470423744689 0  2.175650736889416 2.909863021769539 0  4.036616464259081 1.709699085170981 0  3.887974623473683 0.6492597046022868 0  3.4375 0 0  3.70675699592552 2.289666624772415 0  4.697265625 4.208984375 0  2.815177577303495 4.085937578239174 0  4.672619047619047 1.730733296184288 0  4.6875 0 0  5 0.3125 0  0.3125 5 0  0 4.6875 0  0.3276089296588581 2.484526834811734 0  0.712433309515852 2.065138854645612 0  0.6376435912223634 2.711473454001295 0  1.184991292170422 0.7222504400947201 0  1.31884329779317 0.3206944232264773 0  3.683609198994263 3.44428698533042 0  0.3125 0 0  0 0.3125 0  4.231797269642997 3.789141808928991 0  1.564375596050781 1.425998687184973 0  2.007640894175573 0.9032106925568466 0  0.955125897558294 2.276666098587227 0  1.43898735721003 2.611310720271951 0  1.954491523717513 4.040700257877075 0  1.752947649777421 3.652439445419346 0  2.509575750247638 4.678021307664052 0  4.687194709705067 2.499965519538002 0  1.5625 5 0  0.9375 5 0  5 2.8125 0  2.1875 5 0  5 1.5625 0  5 2.1875 0  4.0625 0 0  5 0.9375 0  2.8125 0 0  0.9375 0 0  0 0.9375 0  0 2.8125 0  0 3.4375 0  0 4.0625 0  5 3.4375 0  5 4.0625 0  4.010848109290813 3.306446973933037 0  0.3077461147713075 3.119700563473354 0  4.6796875 4.6796875 0  2.333079012424948 3.845757959077508 0  0.7829771267899832 3.317744656243421 0  1.159100632608513 3.532487125138763 0  0.799066251840424 3.893573750162776 0  1.57326499580282 4.255438189102632 0  0.7309366047093668 0.2991402264438908 0  0.3054777494262156 1.223275888123843 0  4.027475154280377 2.78211326942427 0  2.35270874745988 4.426658168476266 0  3.474236283732569 2.021154281686229 0  4.401414236174444 2.329446628171927 0  3.39403781747337 3.987097102903034 0  1.077524329801934 1.214100792470484 0  4.065611571711903 1.066085524514197 0  2.165399002716117 3.335637450367864 0  3.007639563081306 1.093684039371638 0  4.030818285732145 4.351883315180857 0  3.504115222530889 1.739284194222036 0  1.224503368215566 4.712091441401919 0  3.805634204685714 1.321528442399996 0  4.319233123479386 1.573547993867769 0  1.024007670021325 4.394604704797005 0  3.776400432023095 3.839003324979723 0  2.991819819453308 4.320567175146181 0  0.9782797534072181 2.886406017887129 0  1.763835134082104 0.6602345487826022 0  3.765182288741625 1.631193038541544 0  2.267959593989681 2.345053543725764 0  4.412434895833333 4.168294270833333 0  4.4072265625 4.7255859375 0  2.791493971314009 3.11210833271929 0  3.408766223032414 3.469500900677365 0  1.915147569444444 4.725484476461039 0  2.070301968506271 0.2605666686358055 0  2.767932250651506 1.530295992695836 0  3.280065043173439 1.364863281105779 0  4.45101570110842 2.974157152713635 0  3.521928862999512 2.96990445010402 0  2.552921961347576 4.008414007169315 0  0.2682955376854191 3.657555015841003 0  3.084522868361304 2.310593316718068 0  2.669255823227708 1.939379494498064 0  2.615884629473921 2.238841231570381 0  1.405652091971449 0.8877813821442277 0  3.25151486618811 3.68536115104276 0  1.963741569810629 2.331207252264507 0  4.017297980292599 2.486269171379106 0  3.869168920841219 4.748188103831625 0  3.596868753579134 4.77342723825056 0  2.41262958240343 2.764128584995838 0  1.266750578673391 1.404747710001619 0  1.559243962241121 2.85146506328516 0  3.128799423834764 2.052081657715259 0  0.6770833333333333 0.9778025793650794 0  0.2083333333333333 0.78125 0  1.978224492765132 3.087074731032578 0  4.051448850909273 1.969392119104174 0  1.320577095006813 4.172234780971559 0  3.214261103850064 2.534397293281829 0  0.2635729089754111 1.779234736680035 0  3.510775680035133 4.460728640112889 0  2.603081405968802 0.2432579385496493 0  2.866341315154884 0.6662105505481998 0  3.000919221100777 0.2270278495648781 0  1.298858304121393 2.05917319923859 0  2.020292299736597 1.589794568392338 0  0.7401688396476035 4.470780315741533 0  0.6721783535561408 4.733125588707921 0  3.753712482075402 2.874301339727514 0  3.557348205914658 2.491958694539413 0  1.094565978195436 0.2011034254079851 0  0.9338148378011396 0.6833568465908735 0  2.945530578578538 3.701798332963805 0  3.111707186654356 3.216904195825605 0  1.341791111822685 3.293123262233967 0  1.632939924064587 1.184895891095613 0  0.6335477978936732 3.517393619499591 0  0.5576014611130192 3.210998966942492 0  1.564344196470102 0.3630498725895039 0  2.75362450242839 4.626680495816594 0  3.571304405229554 1.192452351107437 0  3.522934592621944 0.9359134489437148 0  4.453125 3.671875 0  4.765625 3.828125 0  1.055906321410838 4.14310472322957 0  4.795146539102229 0.46875 0  4.767156345199235 0.7178596932040019 0  0.2048534608977711 4.53125 0  0.232843654800765 4.282140306795998 0  0.5393715189906129 4.270810883024032 0  4.329922600274667 0.2750645887059072 0  4.275515096738972 0.5448389557295173 0  4.477747423652795 0.7252838358993123 0  0.2002829820452772 0.46875 0  0.4352678571428572 0.6956845238095237 0  0.5007241582667088 0.2123388122114133 0  4.672890923830735 0.2500902110494848 0  0.4308009280819452 4.783624996516437 0  2.104871305393774 4.438653689007242 0  0.2274454167838428 0.2274454167838428 0  3.446466574593436 0.4359605369011901 0  2.12354112127588 1.217588426759619 0  2.309175236825235 0.7888355970690434 0  2.556178570281936 1.054299163237582 0  0.578683248637
[...]
<PointData  Scalars="f_10845-0"> 
<DataArray  type="Float64"  Name="f_10845-0"  format="ascii">-9.4649831739480788e+01  -6.6649320124669675e-01  -5.6813514720236401e-02  -3.5863420886402188e-02  -3.4767512412294166e-01  -5.1519479588624885e-02  -1.1998905682126031e+01  -7.0284654826308740e+06  -3.3217321647464582e-01  8.6674605043400934e+00  -5.0784761196185357e-01  -3.3319547560163528e+01  -2.0849500167471186e+04  -5.4310849173267686e-02  -1.8935024815618637e-01  -4.9416022155973911e-02  -4.8701938535685385e-02  -2.1210514980187761e-01  -8.8686580103510187e+02  -4.2702995945257793e-01  -1.8663459765207013e-01  -3.3053477193234559e-01  -1.8277467423549704e-01  -5.3763217420991882e-01  -1.3091513156658535e-01  -1.2105702069503935e+05  -3.1182031277978589e-01  -3.0854442692779497e+02  -1.1599672397601930e-01  -1.3372212584626852e-01  -2.2156500928475152e+03  -2.3544405874475896e-01  -1.0500296606566660e-01  -1.1540898150788118e-01  -3.3986133310798999e-01  -2.9678034623863975e-01  -2.2319484262208233e-01  -3.9531069680180864e-01  -2.6565571652757547e-01  -1.1127691037969194e-01  -3.9338290480586008e-01  -1.2318128926795742e-01  -5.8822834618813802e-01  -5.8618764779934807e-01  -4.8198008493786491e-02  -4.6623201277500886e-02  8.8397340720392424e+02  -4.4976092209265750e-01  -1.8214871380847780e-01  -2.6589692476235144e-01  -4.2588817961394987e-01  -6.0907757889794148e+01  -1.1536219719572446e-01  -5.2071975950110587e-02  2.5400584050139187e+04  -4.1689186154146190e+05  -2.8336630613077052e+01  -5.5650850327764893e-02  -1.5631941531904283e+03  -1.3687146578486620e-01  -4.9884594954788253e-02  -4.7653342086462219e-01  -4.7357035958997491e-02  -2.0370877735904125e-01  -2.5902151962489028e-01  -2.8332113283522001e+04  4.6356243021364563e+00  -1.4453457457180824e-01  -5.0469126007972136e+02  -1.8158385508897362e-01  -2.9827703213501611e-01  -2.8172528598730090e-01  -9.0554158779954654e+04  -5.4354837315818882e-01  -5.3799097682550412e-01  -4.8885903678439324e-01  -9.3609535771665295e-02  -8.5417972770226058e-02  -9.6006554405216216e-02  -3.0667134098619270e-01  -6.0268071597847184e-01  -3.7196058597745379e-01  -1.8472836316846983e-01  -2.5333864483723612e-01  -1.8375694144326474e-01  -8.5817798273535736e-02  -9.7716966548129072e-02  -5.0116214133147569e+03  -4.2041423147264786e+03  -3.9722952413962810e+02  -1.5063415685574552e-01  -9.2382029817790881e-02  -1.5790526296636162e-01  -8.0832097599226910e-02  -5.7837517566197981e+01  -2.2143284696439849e-01  -1.2470274495065303e+06  -7.9086523799050484e-02  -2.4539890267908619e+00  -1.7695918371166724e+02  -2.1754720755642967e-01  -1.6441808303569727e-01  -9.7654787004103753e+02  -2.8976919446450988e-01  -2.4149347931331139e-01  -4.9757002207129919e-01  5.4736096139200424e+02  -4.8429698846712566e-01  -1.3434938206543179e-01  -5.0253511757024388e-02  -1.0770468785303639e+04  -9.6389493555263660e+04  -9.4942503340940834e+02  -3.4881016347725957e-01  -4.3391636729879363e-01  -3.8102444759922072e-01  -3.6131713482618683e-01  -1.4129948009787360e-01  -1.3917701554693199e-01  -2.3388440092362872e-01  3.2134208026378353e+01  -1.3839968621248838e+02  -4.7734516180080011e-02  -3.3474156158854351e-01  -3.3225708654864416e-01  -4.4414450013027344e-02  -4.7102595701385691e-01  -1.9337512559223484e+00  -8.6185426521043468e-02  -2.5625005719801436e-01  -4.5226115595557265e-01  -2.2918360719124484e-01  4.5196334911597963e-01  -2.6822937830476523e-01  -1.9505578615347882e-01  -2.2952070753512557e-01  -2.0969161774329431e-01  -9.9277770853676941e+00  -2.9412582217242622e-01  -4.0932152324525256e-01  -4.3508111828528090e-01  -3.4402841395785888e-01  -3.8565609468169859e-01  -3.6443955354077978e-01  -7.7628835536550631e-02  -8.2932024847769098e-02  -4.3490511140536418e-02  -7.8542916836202473e-02  -1.7008881942630982e+04  -1.1530511322228765e-01  -2.9757992809512573e-01  -5.6873628407636700e-01  -4.6786207096100335e-01  -7.9476670080947789e-02  -3.8803286300211109e-01  -2.9152122882178833e-01  -1.5114597411475342e-01  -1.6973748491433527e-01  -2.2698664220732753e-01  -1.9248594583338602e-01  -7.4481209959395167e-02  -1.4445760094633023e-01  -8.1040741301985936e-02  -8.3567978239331916e-02  -5.6486372826755192e-02  -8.1596103489281475e+01  -3.5954000670228879e+02  -3.5022734453431825e+04  2.3838785513273741e+00  -3.2873049787674131e+03  -5.1608733098483350e-01  -4.9858589664336750e-01  -1.9048926808118036e-01  -6.2865529672489173e-01  -6.2481678375457328e-01  -1.2593636629629054e-01  -4.6264731697791800e-01  -4.0998364710920310e-01  -8.2212820173658798e+00  -9.3697132198844429e-02  -8.7138142015100556e+01  -2.4067728662133849e+01  -8.5803443316530768e+00  -7.8242344524629928e-02  -3.4817221512412850e+01  -3.9818431225868430e+01  -5.0610086480521982e-02  -2.2175498911664167e+01  -5.2901144984375738e-02  -5.1822016898922928e-02  -1.5110628532979492e-01  -5.5351169136877314e-02  -3.0663836104419934e-01  -5.4760374075788110e-01  -1.0320551233058501e+00  -1.8064222132385289e+06  -9.4626260846432633e+04  -4.3212168244594441e+03  -4.9748823744101542e-02  -4.8866526555018233e-02  -1.5438415703514544e-01  -3.6244726665970794e+05  -6.2347679050860777e-02  -1.3144961156841661e-01  -9.3102092004747246e+04  -1.4109958605200582e+04  -8.1223317832382563e+03  -8.9230039944603323e+02  -5.7434905437793171e-01  -1.4913683586453361e-01  -1.5285266599546440e-01  -1.1470031085129618e+01  -2.2196980953820064e-01  -1.0797331448973847e-01  -1.5418366541232539e-01  -5.0579857120340610e-01  -1.4845962442385777e-01  -2.3551276214920236e-01  -2.8046506590437309e-01  -1.0765148789571091e-01  -2.1749168632648322e-01  -1.5703493589612529e+02  -1.8043096579152615e-01  -1.1889269312483607e-01  -7.5593397103857978e+02  -1.6199792688576917e-01  -1.1581991565498076e-01  4.8980176655458098e+02  -4.4140462038837547e-01  -1.8404307598120334e-01  -3.5652472914563044e-01  -1.0096316280158799e-01  -6.7326431184904528e-02  -2.6280573285946002e-01  -2.0922099568164620e-01  -8.8343117787287142e+01  -4.0134215645071186e-01  -3.1236459291250446e-01  -2.4572136545374179e-01  -1.0284455826614902e-01  -2.1516702402616320e-01  -1.5041851220876712e-01  -2.9539438669330473e+04  -2.7150530264633688e-01  -3.2473715771795736e-01  -3.3111289489146117e-01  -4.8746769104116683e-01  -1.9065391093502773e-01  -3.6413505240888011e-01  -1.5381337551754734e-01  -6.9513131243404469e-02  -6.7976697452467580e-02  -3.0811919246926073e-01  -4.8103375923107555e-01  -6.0213349515553860e-01  -2.6615788318231570e-01  -5.3841025091414585e-01  -5.5581492821761014e-01  -2.7115056309294189e-01  -1.4909142524244409e-01  -1.6488807362308009e+03  -2.5478824691622270e-01  -3.8625669467736907e+02  -9.9646038590417194e-02  -3.3344440417070814e-01  -2.9837701807577666e-01  -2.8248942675280075e-01  -3.9458424365439693e-01  -4.0821861690577838e-01  -5.1282388758337004e+02  -1.4607144802333846e+02  -1.8631635282197909e-01  -2.1165704820666331e-01  -5.2748019094134979e-01  -5.4798797714420244e-01  -1.9068191186252076e-01  -2.4386216416808096e-01  -6.7700106316035289e+01  -4.5822926483964443e-01  -4.9086464379504498e+04  -2.0352048524590014e+05  -4.6720198291095189e-01  -5.1644769392693357e-01  -2.0930372925978913e-01  -2.1638076275945953e-01  -1.0219298407710319e-01  -6.9792307467621328e-02  -2.2381222472576378e+03  -7.2583996185468957e-02  -7.5269544224699919e-02  -6.6500520451182592e+02  -1.4473941601103966e+03  -1.4533272370877658e+03  -1.2017956188130273e-01  -1.2576422963040887e-01  -1.0339095794786524e-01  -6.0528062060475085e-01  -5.7447228121130456e-01  -6.0430613649326737e-01  -8.4630553309719886e-02  -1.8074411316639379e+02  -9.5810920866365691e+01  -6.3346462718062801e-01  -2.2505199882056168e-01  -3.9490907042739726e-01  -3.7144776657773598e-01  -3.3991086969607814e-01  -6.0088852711468789e+03  -2.4390074141886389e-01  -3.7371368962372076e-01  -1.0501924311387076e+04  -1.7459104966502703e-01  -7.5562263419137604e-02  -7.2287537134108001e-02  -6.5427840319321168e-02  -5.1579250307547775e-01  -3.2864916505861274e+03  -1.1180155985978747e+04  -2.7316457036070502e-01  -1.1299442649236960e-01  -2.6991189968464663e-01  -1.9536161065736041e-01  -4.3175159774088140e-01  5.6306199995642281e+00  1.9086882559785392e-01  -1.1682004049972802e-01  -4.4757049092291878e-01  -1.0352165178936912e-01  -2.3899895911640187e-01  4.4713015875432502e+03  -7.1622925513681546e-02  1.0567686926031369e+01  3.4357985677784249e-03  -1.3736143886806537e-01  -1.4704348573511541e-01  -1.5951667110083201e-01  -2.4906711176260092e+01  -4.1758542062599293e+05  -2.9814706164632095e+06  -6.3501079083499543e-02  -9.6785264266003770e-02  -3.9004992030795277e-01  -2.4616655683580355e-01  -2.4103177296513484e-01  -1.1964577374965515e-01  -2.0705412879181664e-01  -6.3354159641312774e-02  -1.3989547724139897e-01  -3.0494240628714941e-01  -9.3897251388715617e+01  -3.2674640714623793e-01  -6.2798104240647756e-01  -5.1741673468143690e-01  -5.0096142381264186e-01  -2.4240826871890395e-01  -1.8717603722056988e+05  4.1740237042468495e+05  -6.3974217802312536e-02  -6.5226836819397283e-02  -4.3395978665599007e+00  -1.9103229576917539e+02  -4.8789567373772935e-02  -1.5963972753384811e-01  -1.2298246492501701e-01  -3.1003187098502921e-01  -5.9352354671982667e-02  -2.7461896947045827e-01  -1.2967928231612125e-01  -5.9897440899383651e+02  -8.1137476243298153e+01  -3.1115279282216063e-01  -8.3337657919461420e+05  -5.6753713078062951e-01  -1.0224036540865891e-01  -2.3644413334420425e-01  -3.7677701629797605e-01  -3.6005212651919499e-01  -2.3731054611304825e-01  -4.2632895610401544e-01  -4.3877698813321520e-01  -4.4843831209180185e-01  -4.1184832878727351e-01  -1.6282985685461393e-01  -3.0980514942014492e-01  -2.0348020584075921e-01  -2.6419733139082396e-01  -5.0653582625128157e-01  -8.4218004847311605e+01  -9.3029895102609478e-02  -2.2226387725761149e-01  -3.4433634124193713e-01  -5.1160945441753236e-01  -3.5564181409221510e+02  1.6032042589850725e+01  -4.1940557176875826e-01  -1.1283480924158498e-01  -2.8552173678709492e-01  -2.4766434536696913e-01  -8.7638814224486120e-02  -3.0968017774432832e-01  -5.5458901884945699e-01  -6.9712293639683985e+03  -1.6618542047811763e-01  -1.2650552357482470e-01  -2.7350652181532797e-01  -1.3022255783423986e-01  -7.3092598798852979e-02  1.7412672076710493e+02  -4.4907884847341667e-01  -6.8624664905851632e-02  -3.6157959443762266e-01  -3.4993347402107555e-01  -3.6730042984830780e-01  -1.1316300113846435e-01  -3.7060657681554141e+04  -1.8784289237728637e+04  -2.0683544864347589e-01  -4.9320288365141668e-01  -1.0338647772645632e-01  -3.5649813075612329e+01  -3.3470724149236963e-01  -1.6824876939119379e-01  -1.7662425949579055e-01  -9.9940325906028402e-02  3.0572713552517481e+01  3.1876050488865921e+01  -8.8004571211667353e+03  -2.0905316878480387e-01  -1.6108336995489300e-01  -1.4240521384866811e-01  -4.8744739766174161e-01  -2.8367871809355572e-01  -6.1997079309344265e+01  -2.2748685677640427e+02  -1.4870607759768698e-01  -3.4244407197806209e-01  -2.4970220819043325e+03  -3.0845154498971100e-01  -1.3918983131639426e-01  -4.7744376059135912e-01  -9.5283983100558939e-02  -7.4421565392949575e+04  -3.8929708012557240e-01  -2.0168655520381928e-01  -5.5465800870696025e-02  -4.2763489219541595e-01  -2.2589085540661455e-01  -3.0644820554721780e-01  -4.1941025687104228e-01  -9.9302943789298201e-02  -2.3469529695345159e-01  -8.2071061611528803e+03  -1.0174015368874062e-01  -7.6133759176912549e-02  -1.0226800444725261e-01  -2.5546542854092085e+01  -4.0842689460810433e-01  -4.6682963074464207e-01  -3.1478873303104482e-01  7.4714201467821395e-01  -2.1359706610096724e-01  -2.6064900077040243e-01  2.4041975515068709e+04  -1.3321376135865939e-01  -1.3970972992655473e-01  1.2910370482848168e+03  -1.9955898291697898e+02  -1.7566437864131734e-01  -2.6205925089739518e-01  -4.8085625217759465e-01  -1.7253118032504108e-01  -4.6735047820124348e-01  -4.3783069795478913e-01  -3.6762596682689841e-01  -3.2210331283071031e-01  -3.2225874340981431e-01  -2.0760621446390040e-01  -1.8582146947775136e-01  -2.4938987423653422e-01  -5.5016212567630851e-01  -4.7212617931079123e+01  -8.6107097168039409e-02  -8.2486371918076853e-02  -3.2538159172691849e+02  -1.2109677893469599e+00  -6.0894133837904027e-02  -4.7215553117297399e-01  -3.8751443308020922e-01  -3.6609195041118148e-01  -1.0915650690034456e+03  5.7980735505500629e+00  -2.8967361362391614e-01  -1.3108642958452335e-01  -2.7654106343579432e-01  -5.2285460868654189e-02  -8.1041378040874787e-02  -1.7710553746056623e-01  -1.1188289255565580e-01  -1.3762187901791316e+04  -1.1575118913898237e-01  -1.6029422426207968e-01  -2.5273473113670952e-01  -3.5055572691708026e-01  -5.6794628304845862e-01  -5.4835824363257353e-02  -6.9246466926255454e-02  -4.9980365214698068e+01  -4.2473923296067878e-01  -2.2970848527958398e+04  -3.9061729896411278e+04  -2.0361667696318925e-01  -6.4518702880143886e-02  -4.1151026401772300e-01  -1.2401040074182450e-01  -4.1329531541650977e-01  3.8948416592214888e-02  -1.6084728693227096e-01  -4.5369857666229378e+04  -5.1395888736278075e+03  -8.1209141832801976e+01  -8.3314459607652395e+01  -3.7920220175311409e-01  -4.5607286618662474e-01  -3.2389246455881482e-01  -8.8767414350612847e-02  -4.9016131664648316e+02  -7.2640361891265400e+02  -2.1527498750471918e-01  -1.9952681434983127e-01  -1.7755602555678085e-01  -4.2952026465625850e+03  -1.2175167825240951e-01  -1.3177839393545854e-01  -3.5338363191567490e-01  -5.3756946724277527e-02  -1.3538945160310231e-01  -1.4119019432235569e-01  -1.6423762679194226e-01  -6.2437457403853383e-02  -8.5290186995767514e-02  -6.4916233484706390e-02  -5.6168856781392502e-02  -2.3434065892839453e+01  -1.3038980819650769e-01  1.0615007961898604e+02  -1.2163868637916567e+01  -2.4469736832159528e-01  -9.6064879414635554e-02  -6.3698714992820926e-02  -2.3307872393318435e-01  -6.0576476129624940e-02  -8.6598546165038814e-02  -3.1938300981624967e-01  -3.0206484300726499e-01  -8.9457398488303419e-02  -8.7999542205319858e+02  1.4368112104241151e+00  -4.3042652734663539e-01  -1.6514572495992338e-01  -1.1288674019497680e+02  -1.0160193733296982e-01  -5.8549413349188284e-01  -5.5810572923862756e-01  -5.5415922130618223e-01  -1.6358094817748201e-01  -6.9009531117462275e-02  -2.1353051060160391e-01  -2.8496477750016729e+03  -6.7096047692831826e-02  -3.3850117499325972e+02  -2.7815389521631512e-01  -2.2964234385184190e-01  -1.2266345987671871e-01  -5.6083271310887979e-02  -2.5762418826296341e-01  -8.5092631931262860e-02  -6.2514530850552752e-02  2.4681305718699771e+00  3.4724892570887397e+02  -2.2953313817045765e-01  -9.6002840860280200e-02  -6.5443615401294480e-02  -4.1100358393706344e+01  -1.7441615738626043e-01  -5.1959296742300420e-01  -2.6218199330035974e-01  -4.9113195992503390e-02  -3.1633926819502534e-01  3.6559558068320568e+00  -7.1401941130319180e-01  -2.0930835081669832e-01  -9.8784720019985514e+02  -3.3994574704831076e-01  -3.8757903302025332e-01  -9.6662916395203025e-02  -1.8591790489746815e-01  -5.8842531259456199e-01  -2.6365280816706369e+05  -4.9343159264103392e-01  -5.0667921191604981e-01  -4.9073829609279174e-01  -5.3019496456380344e-01  -5.3000947875976290e-01  -6.5383388438590193e-02  -5.1994983198782041e-02  -2.9210494543939741e-01  -2.9177845842669720e-01  -3.1914709261596785e-01  -5.2778652531158157e+04  -5.8514380459145621e-01  -1.9483728589841953e-01  -8.4814553994879027e-02  -4.0609259733851133e-01  -1.0843785565261337e-01  -1.0045639329337039e-01  -8.7876282191914665e-02  -1.6302115315391544e-01  -9.4571779050750954e-02  -3.8819271926363286e-01  -1.3949934578638021e-01  -2.9162546205221368e-01  -1.4858259140506085e+00  -2.6241221576815750e+01  -6.4824059372884035e-01  -6.4336944819296138e-01  -1.2901928978023733e-01  -3.2678396088179723e-01  -7.3414984599605784e-02  -6.1631157374424772e-01  -2.7941953506206578e+03  -6.6609351022052107e-02  -4.7949176503197605e-01  -4.6720913869878417e-01  -2.3308627346813166e-01  -1.4291498260803348e-01  2.7650583387493077e-01  -3.9164025969374794e-01  -4.8290192010337032e-02  -5.8460665661301692e-01  -1.0963677530605508e-01  -1.4966662228415761e-01  -4.1434940341681920e-01  -1.2182176088744985e-01  -5.1865592849466791e-01  -9.8242821439998719e+04  -5.6007379423468535e+02  -1.2491266562817987e+03  1.7756056066593712e-01  -1.2768778953844803e-01  -2.2610047880107947e-01  -2.5089580977875708e-01  -3.4496959200512839e-01  -2.0157373478266674e-01  -1.6591483499568108e-01  -7.8529707636738458e-02  -6.3439504937566241e-02  -1.8932369322466038e+03  -2.4329444163028141e+06  -1.0882400549984743e+00  -6.2705730600842224e-02  -3.6674423842862419e-01  -4.5375548883379649e-02  -3.1730826645388607e+01  -4.7892952420196505e-02  -1.8105456422380152e+02  -8.3075550922168773e+01  -5.2516831293582662e+00  -1.9864735750481245e+05  -4.0407774372516585e+01  -4.9789387254921394e-02  -2.0823548126840974e-01  -2.4631141063309098e-01  -5.1748263875738082e-02  -5.0989480322873322e-02  -5.0201267506314706e-02  -4.4588601681805514e+04  -6.8703647494214745e+06  -3.6677181052126149e+06  -1.6974685409722287e+01  6.6629117858035158e+01  -4.4721049559304765e-01  -1.6978920262249764e-01  -9.4863405083260786e+03  -6.8822086764540344e+01  -6.0820486165041487e-01  -7.3525634354567796e+02  -5.6274991266701976e-02  -5.2771158448468325e-01  -2.8656096751928695e-01  -6.0048454416478914e-01  -8.4979095090905410e-01  -4.9025139777832086e-02  -4.6668371495339728e-02  -4.1131790108978612e-02  -4.0510388237875693e-02  -8.8933870573065453e+05  -5.5449929995525060e-01  -2.5499890286441301e-01  -4.9602521706291966e-02  -4.9002495781773542e-02  -5.5373598309749153e-02  -1.8094174559102175e-01  -1.7024077764705732e+00  -2.4561915439827317e-01  -6.6397193493863654e+01  -2.8878878685089143e-01  -1.1722996371389309e+01  -5.0622207728870983e-01  -4.8754001794591223e-01  -5.2137679990268582e-01  -9.6881168204322604e-02  -5.5785975005509048e-01  -4.2650991200850913e-01  4.6419346581622961e-01  -4.3491362189931378e+03  -3.2674234123753709e-01  -3.9127030718640288e-01  -2.4635191413918176e+02  -7.1218882095155271e+05  -4.2254361324272456e+05  -1.9019168953913366e+05  -1.1656197648611984e+06  -3.5181690672517307e+00  -4.7903780947443358e-01  -9.5611711884980397e-02  -1.8388618032037196e-01  -9.7467809584431020e+00  -1.1399662422021480e-01  -4.6300140927958505e-01  -6.4524684506590727e-02  -3.9972952453320520e+05  -1.4166044938597226e+01  -3.6165376414231576e-01  7.6389659120686670e-01  -2.7978972709737898e-01  -3.3394409519123383e+02  -2.9453261553616056e-01  -3.9236278456225826e-01  -3.6972696821829504e-01  -1.7666679054105605e-01  -8.8565106642739491e-02  -4.2946119286140760e-01  -1.1939838869519617e-01  -1.0657326802736092e-01  -3.6254790773020812e-01  -2.3395110065617999e-01  -4.4562448813955369e-01  -2.2058335855273473e-01  -4.9838975539895281e-01  -9.6799621948365916e-02  -6.0653049651200472e+03  -2.1955361627429779e+03  -1.2304124413052087e-01  -1.7261111505530849e-01  -1.6506960170231530e-01  -1.3981853801530972e-01  -1.4317888620384719e-01  -8.6481189962337533e+02  -1.6565549207037229e+06  -1.5455848260777727e-01  -2.4675423001387790e+04  -3.3220398270477908e-01  -1.5517459701950298e+04  -1.1510638114831470e+04  -2.3157942616129809e-01  -2.8454793049832372e-01  -1.9959353542204178e-01  -1.8983457816282728e-01  -2.5175185361859490e+03  -4.2334866175086520e-02  -1.5650106240131604e+05  -4.7539907787722033e+04  -5.3002785821866368e+04  -3.7396311407742971e-01  -1.1825113923661387e-01  -4.7036054905264791e+01  -1.0268642291259008e+01  -5.5291929228131789e+02  -1.0597462420102711e+03  -4.1168311994776803e+02  -8.5086344380506246e-02  -2.5939962795893007e-01  -2.9346367563994169e-01  -9.8593039194244170e-02  -6.8998086024796970e-02  -1.1170398247788565e-01  -1.8608755235778127e-01  1.8953747465139212e+00  -9.4934416631979984e+03  -2.5234778439715072e-01  -1.5700526176507440e-01  -4.4931936132139472e-01  -3.2509191073177740e-01  -7.8627361177667027e-02  -4.4964106522356123e-01  -1.8249047911646546e-01  -1.1862209106956066e-01  -1.049424746362