<?xml version="1.0"?>
<VTKFile type="UnstructuredGrid"  version="0.1"  >
<UnstructuredGrid>
<Piece  NumberOfPoints="6486" NumberOfCells="12696">
<Points>
<DataArray  type="Float64"  NumberOfComponents="3"  format="ascii">0 2.5 0  0 0 0  2.5 0 0  2.5 2.5 0  1.25 0 0  2.5 1.25 0  1.25 2.5 0  0 1.25 0  1.25 1.25 0  0 0.625 0  0.625 0 0  0.625 2.5 0  0 1.875 0  2.5 0.625 0  1.875 0 0  2.5 1.875 0  1.875 2.5 0  1.770833333333333 0.7291666666666666 0  0.7291666666666666 1.770833333333333 0  0.9375 0.625 0  1.875 1.5625 0  0.642361111111111 1.163194444444444 0  1.341594827586207 1.883979885057471 0  0.46875 0.46875 0  2.03125 2.03125 0  0.3626104797979798 1.513178661616162 0  1.381740196078431 0.4564950980392157 0  0.9375 2.172619047619047 0  2.172619047619047 0.9375 0  2.096354166666667 0.4036458333333332 0  0.4036458333333333 2.096354166666667 0  1.684027777777778 1.163194444444444 0  0.3418803418803419 0.8693910256410255 0  1.642742622813391 2.162164207604464 0  1.275619849389031 0.8465650753054845 0  0.9136284722222221 1.434461805555556 0  1.732437511238546 0.3406962303960658 0  0.9714402568595876 1.029779313093998 0  1.52281746031746 1.485615079365079 0  2.1875 1.71875 0  1.06819722569879 0.2997236128493951 0  2.136114211309524 1.303478422619048 0  0.3125 0 0  0 0.3125 0  2.5 2.1875 0  2.1875 2.5 0  0.3200021620376328 1.192323085056694 0  0.6738456129277992 0.8304377375553881 0  1.757891808928991 1.861952730357003 0  1.5625 0 0  0.9375 0 0  0.3125 2.5 0  2.1875 0 0  2.5 0.9375 0  0 0.9375 0  0 1.5625 0  0.9375 2.5 0  2.5 0.3125 0  0 2.1875 0  1.5625 2.5 0  2.5 1.5625 0  0.7448220909826522 0.3003573636608841 0  1.027298850574712 1.871151477832512 0  1.331260495098891 2.197262878816185 0  1.207917681892289 1.582765010956622 0  0.4339993447432606 1.801186844743261 0  0.6337298768939392 1.443093039772727 0  2.049851190476191 0.6826636904761904 0  0.6584821428571428 2.219122023809524 0  1.89575676467455 0.9798457973793544 0  1.437570562095628 1.059380588255917 0  1.502090052505845 0.6987070896496241 0  0.2040860661083546 1.705323965099331 0  0.2083333333333333 0.46875 0  0.5070952039991439 0.2211150679997147 0  0.6916302856529919 0.5813591430410241 0  2.265625 1.953125 0  2.2265625 2.2265625 0  1.886424081252096 2.243391360417365 0  1.40625 0.202164758520858 0  0.2269345238095238 0.2269345238095238 0  1.152730869673694 0.5225850378741401 0  1.885631899587912 1.312095130148776 0  1.614808884009367 0.9049784971014416 0  1.890095442220658 0.5126535558463003 0  2.323168682795699 0.46875 0  2.268811725689575 0.2304742875213018 0  0.6002389442105756 1.967426444210576 0  0.1768313172043011 2.03125 0  0.2311882743104251 2.269525712478698 0  2.03125 0.176831317204301 0  2.280262553344767 0.6954945504579233 0  1.979219539285994 1.809922269642997 0  2.336309523809524 1.09375 0  1.09375 2.336309523809524 0  0.9314042474388009 1.662973812215543 0  0.1634067999087722 1.40625 0  2.337090640094896 1.40625 0  1.141616997467638 2.069311773587991 0  0.46875 2.338939559681489 0  1.542440307908715 1.734944797244472 0  1.556713687786879 1.956977865354753 0  0.8264238995344066 1.975424467820646 0  1.466326331454725 1.275271369760862 0  1.655675324257095 0.5444159974393489 0  0.3385416666666666 0.6479255698005697 0  0 0.78125 0  0.5236073939200119 0.984090461540625 0  2.091665741047893 1.519793517904215 0  1.71875 2.5 0  0.5356538886262603 1.623137930505009 0  0 1.09375 0  0.1932884281517095 1.015625 0  0.8569313582417669 1.2198915584249 0  0.8876981284879677 0.8329884081524883 0  1.115618488474214 0.7219586973356271 0  1.186950366204949 1.043465130075318 0  2.057459118787237 1.110823087309335 0  1.830651283878689 2.049810069572418 0  1.689107969301489 1.367247437031697 0  0.4921048768039656 1.298643370653124 0  0.8213975694444444 2.336309523809524 0  2.03125 2.5 0  1.049729400480002 1.283723261332814 0  1.308101375801673 0.6489479469700392 0  2.5 2.34375 0  0.4968777175037714 0.7562964879736076 0  1.40625 2.5 0  1.501347663534097 2.307027627307738 0  1.602813712048603 0.1926218191360736 0  0.8393082906308107 0.463778306132633 0  1.682663349152719 1.598471865581041 0  0.7774174680851571 1.560004941327907 0  1.554204170364662 0.3898593897892066 0  1.842184459051087 0.186443880058197 0  1.358107417651776 1.696381759610015 0  1.18859291992392 1.77598670078022 0  0.1875331222687418 0.7609599743339348 0  1.339536743965101 1.422080365801479 0  0.7788179348750389 0.9955343414928611 0  0.9062978492805438 0.1919636509126373 0  1.256007360640958 0.3160320559396114 0  1.09375 0 0  1.174986727221844 0.1594990293443933 0  2.34375 1.796875 0  2.318026474511116 1.589177949022232 0  2.34375 2.5 0  1.672742954892153 2.332882724550692 0  0.2683637361947215 1.874801596909639 0  2.174770749820102 0.5581009131310781 0  1.443279522965991 0.8870068372898454 0  0.3385416666666667 0.3571428571428572 0  0.78125 0 0  2.060421048269335 2.314363248763811 0  1.088078737088509 0.8967352118723447 0  1.087825368444708 1.454931510884769 0  2.018308232129541 0.8548495425854904 0  1.943987311736842 0.3246298523011434 0  1.71875 0 0  1.85337849796276 1.144833312386208 0  2.3486328125 2.1044921875 0  1.407588788651747 2.042968789119587 0  2.336309523809524 0.865366648092144 0  2.34375 0 0  2.5 0.15625 0  0.15625 2.5 0  0 2.34375 0  0.1638044648294291 1.242263417405867 0  0.356216654757926 1.032569427322806 0  0.3188217956111817 1.355736727000647 0  0.5924956460852111 0.36112522004736 0  0.6594216488965849 0.1603472116132387 0  1.841804599497131 1.72214349266521 0  0.15625 0 0  0 0.15625 0  2.115898634821499 1.894570904464496 0  0.7821877980253907 0.7129993435924866 0  1.003820447087786 0.4516053462784233 0  0.477562948779147 1.138333049293613 0  0.719493678605015 1.305655360135975 0  0.9772457618587566 2.020350128938537 0  0.8764738248887107 1.826219722709673 0  1.254787875123819 2.339010653832026 0  2.343597354852534 1.249982759769001 0  0.78125 2.5 0  0.46875 2.5 0  2.5 1.40625 0  1.09375 2.5 0  2.5 0.78125 0  2.5 1.09375 0  2.03125 0 0  2.5 0.46875 0  1.40625 0 0  0.46875 0 0  0 0.46875 0  0 1.40625 0  0 1.71875 0  0 2.03125 0  2.5 1.71875 0  2.5 2.03125 0  2.005424054645407 1.653223486966518 0  0.1538730573856537 1.559850281736677 0  2.33984375 2.33984375 0  1.166539506212474 1.922878979538754 0  0.3914885633949916 1.65887232812171 0  0.5795503163042564 1.766243562569382 0  0.399533125920212 1.946786875081388 0  0.7866324979014098 2.127719094551316 0  0.3654683023546834 0.1495701132219454 0  0.1527388747131078 0.6116379440619215 0  2.013737577140188 1.391056634712135 0  1.17635437372994 2.213329084238133 0  1.737118141866284 1.010577140843115 0  2.200707118087222 1.164723314085963 0  1.697018908736685 1.993548551451517 0  0.5387621649009668 0.6070503962352419 0  2.032805785855952 0.5330427622570983 0  1.082699501358059 1.667818725183932 0  1.503819781540653 0.5468420196858188 0  2.015409142866072 2.175941657590429 0  1.752057611265444 0.869642097111018 0  0.612251684107783 2.356045720700959 0  1.902817102342857 0.6607642211999982 0  2.159616561739693 0.7867739969338844 0  0.5120038350106624 2.197302352398502 0  1.888200216011548 1.919501662489862 0  1.495909909726654 2.16028358757309 0  0.489139876703609 1.443203008943564 0  0.8819175670410521 0.3301172743913011 0  1.882591144370812 0.8155965192707721 0  1.133979796994841 1.172526771862882 0  2.206217447916667 2.084147135416667 0  2.20361328125 2.36279296875 0  1.395746985657004 1.556054166359645 0  1.704383111516207 1.734750450338683 0  0.9575737847222222 2.36274223823052 0  1.035150984253136 0.1302833343179028 0  1.383966125325753 0.7651479963479179 0  1.64003252158672 0.6824316405528895 0  2.22550785055421 1.487078576356817 0  1.760964431499756 1.48495222505201 0  1.276460980673788 2.004207003584658 0  0.1341477688427096 1.828777507920502 0  1.542261434180652 1.155296658359034 0  1.334627911613854 0.9696897472490321 0  1.30794231473696 1.119420615785191 0  0.7028260459857245 0.4438906910721139 0  1.625757433094055 1.84268057552138 0  0.9818707849053143 1.165603626132254 0  2.0086489901463 1.243134585689553 0  1.934584460420609 2.374094051915812 0  1.798434376789567 2.38671361912528 0  1.206314791201715 1.382064292497919 0  0.6333752893366955 0.7023738550008095 0  0.7796219811205605 1.42573253164258 0  1.564399711917382 1.026040828857629 0  0.3385416666666666 0.4889012896825397 0  0.1041666666666667 0.390625 0  0.989112246382566 1.543537365516289 0  2.025724425454636 0.9846960595520872 0  0.6602885475034063 2.086117390485779 0  1.607130551925032 1.267198646640915 0  0.1317864544877056 0.8896173683400176 0  1.755387840017567 2.230364320056445 0  1.301540702984401 0.1216289692748247 0  1.433170657577442 0.3331052752740999 0  1.500459610550388 0.113513924782439 0  0.6494291520606965 1.029586599619295 0  1.010146149868299 0.794897284196169 0  0.3700844198238017 2.235390157870766 0  0.3360891767780704 2.36656279435396 0  1.876856241037701 1.437150669863757 0  1.778674102957329 1.245979347269706 0  0.5472829890977179 0.1005517127039925 0  0.4669074189005698 0.3416784232954367 0  1.472765289289269 1.850899166481903 0  1.555853593327178 1.608452097912802 0  0.6708955559113426 1.646561631116984 0  0.8164699620322933 0.5924479455478063 0  0.3167738989468366 1.758696809749795 0  0.2788007305565096 1.605499483471246 0  0.7821720982350511 0.181524936294752 0  1.376812251214195 2.313340247908297 0  1.785652202614777 0.5962261755537186 0  1.761467296310972 0.4679567244718574 0  2.2265625 1.8359375 0  2.3828125 1.9140625 0  0.5279531607054191 2.071552361614785 0  2.397573269551114 0.234375 0  2.383578172599618 0.3589298466020009 0  0.1024267304488855 2.265625 0  0.1164218274003825 2.141070153397999 0  0.2696857594953064 2.135405441512016 0  2.164961300137334 0.1375322943529536 0  2.137757548369486 0.2724194778647587 0  2.238873711826398 0.3626419179496562 0  0.1001414910226386 0.234375 0  0.2176339285714286 0.3478422619047619 0  0.2503620791333544 0.1061694061057066 0  2.336445461915368 0.1250451055247424 0  0.2154004640409726 2.3918124
[...]
<PointData  Scalars="f_16-0"> 
<DataArray  type="Float64"  Name="f_16-0"  format="ascii">1.0179978742870122e-03  5.5984813370895604e-05  3.9164634599184521e-05  9.8350324693816105e-04  5.3312658607612119e-05  4.4274207431356071e-05  1.0301342656263827e-03  1.0333849983452301e-03  1.2221916790967097e-03  1.0391553350144462e-03  6.1197032275987320e-05  1.0182749058280766e-03  1.0254867541293889e-03  3.8319490872417926e-05  4.5788196519861212e-05  2.8057418710552141e-04  1.1946236617539530e-03  5.0288224780192354e-05  1.0388388475894433e-03  4.3071021477866057e-04  6.0395599362266135e-04  1.2524532074751943e-03  1.2508541050073559e-03  1.6738898820081170e-03  1.0554753942743147e-03  1.0310076186678819e-03  5.3738274261057705e-05  1.0282258838141441e-03  4.3989536244902698e-05  4.2942247480176424e-05  1.0228722406126825e-03  2.7606918858446260e-04  1.1634798330761118e-03  1.2393283442767114e-03  3.1144144354648299e-04  1.2792269489062442e-03  4.7231890368838623e-05  1.4028814722655293e-03  1.0980557464566627e-03  3.9390146359139866e-04  5.8063614419283392e-05  1.0388540051714752e-04  6.2027696040982102e-05  9.6325641895423828e-04  6.4708736902280317e-04  1.2067559870197646e-03  1.0420264804741114e-03  1.6812165818520192e-03  1.2004454079172354e-03  4.9318535067817525e-05  5.7376286663722796e-05  1.0179258897777220e-03  4.2200953158758968e-05  3.8383139258116826e-05  1.0367727654751724e-03  1.0296273052216255e-03  1.0190144997624284e-03  3.8693995893294376e-05  1.0215942664226266e-03  1.0846765703582432e-03  9.4608799082737723e-05  9.7552056265647703e-05  1.0872393653795734e-03  1.0919283118521147e-03  1.3630216092246946e-03  1.0269394516758277e-03  1.0733826148132620e-03  4.3605931064417161e-05  1.0215807468071775e-03  6.5554752458038291e-05  4.3100665787754503e-04  6.8484808312760316e-05  1.0278950270334276e-03  1.8504054438533090e-03  1.6441263173166504e-04  1.0462361125583770e-03  6.0236110418230085e-04  1.0234318338849810e-03  1.2533338567336082e-03  5.1361526485549491e-05  1.9892244232657453e-03  8.2916009885764872e-05  2.4891961570942285e-04  1.1090850914500159e-04  4.5375653582039724e-05  4.0178175191149952e-05  4.1055350393755568e-05  1.0252623888581478e-03  1.0235674331025191e-03  1.0205774949457978e-03  4.3849606655177170e-05  4.0654190302236630e-05  8.3052180033254576e-04  4.3460760492405310e-05  1.0286356037108163e-03  1.1290054033248082e-03  1.0315858715776293e-03  8.3416900972912598e-05  1.0688823728582763e-03  1.0198678312246575e-03  1.3035076609240004e-03  1.2945247000875340e-03  1.0322558073020088e-03  8.0533103996419705e-04  4.9168041549196830e-05  1.6146365472548814e-03  1.0385002539945638e-03  1.3047443327786127e-03  2.6889131537024175e-04  1.1393989618473201e-03  1.0330592519912814e-03  1.0350594029391394e-03  1.0394540961405384e-03  1.4356383683315674e-03  1.2036910873109118e-03  3.1419726907886065e-04  9.4395051410221266e-04  6.7239822901832421e-05  1.2463303987251672e-03  5.6915669155807559e-04  1.0621739547187806e-03  1.0206366637603291e-03  1.2281159171712817e-03  1.4520010773514838e-03  9.1354004599738660e-05  8.4301190455333584e-04  1.6990073533496885e-03  1.0484758966423577e-03  1.1159381218921497e-03  4.8848287397512165e-05  2.2800668824579632e-04  9.8816608607354170e-04  1.0905665752554317e-03  4.9790933820776899e-05  4.5864026143649000e-05  1.3502458685834186e-03  1.2238560547601707e-03  1.0819129638558994e-03  1.2860055344666541e-03  1.5833792571057779e-03  5.8787438984508817e-05  5.3976976694562107e-05  5.5320849071834528e-05  5.4596120927486561e-05  3.1904300688739503e-04  1.7174918947346926e-04  1.1104023098443391e-03  1.1780267461729108e-03  1.0257569078907236e-03  4.1843036574608345e-05  1.8966276356141538e-04  2.0118518984746530e-03  5.9255275252449368e-05  1.2172885452425388e-03  8.0924572144694905e-04  1.3880823664410603e-03  4.6229296280337084e-05  4.4713286099848155e-05  4.7574553765299440e-05  1.3594849636906604e-04  7.0604149580134987e-04  1.1936782715835773e-03  4.0082729075514262e-05  4.0664340413867758e-05  3.9011246988900452e-05  1.0179787623686293e-03  1.0194540226000418e-03  1.0335514958547012e-03  1.0794008768607415e-03  1.0336827486981130e-03  4.1482551810145281e-04  6.5637892029044674e-05  9.1904047170435644e-04  5.4087270624602567e-05  2.2692649319019085e-04  7.4252639204811118e-04  1.1755624451361940e-03  9.9204061003130872e-05  1.1105635246567672e-03  1.2042563122768198e-03  1.0437954062345418e-03  1.0552565112806509e-03  1.0450933233364297e-03  5.2967669526788390e-05  1.0183951134711694e-03  1.0179974119810362e-03  5.7742082278059837e-05  1.0218982000841372e-03  3.8351401465101952e-05  3.9450225435902723e-05  4.4050363703062181e-05  3.8432426029132552e-05  5.1111742129215590e-05  6.3037684062566696e-05  1.0349280783472374e-03  1.0316105030629035e-03  1.0276619237177737e-03  1.0236727781364056e-03  1.6476068704137956e-04  4.5224358594387866e-04  5.3416024804018994e-04  1.0296527515505564e-03  1.0074426156382870e-03  1.1278051649255779e-03  1.0289447277934700e-03  1.0293423005752987e-03  1.0248965247059479e-03  1.0245632353424875e-03  1.6645340852866158e-04  1.1288131353334844e-03  2.1935046165320191e-04  1.0495305394371190e-03  1.1456614794811562e-04  5.6125553563900063e-05  1.2886753247330878e-03  1.7954962475893279e-03  4.3679337187295812e-05  1.2265188614155246e-03  5.2773845999433788e-05  1.1873145055996685e-03  6.4466831301471632e-05  1.0197223855464229e-03  4.5703818447461428e-05  4.2418134365835379e-05  1.0216942499315204e-03  1.1093276746977994e-03  1.1766276994726725e-03  1.0402736855607219e-03  7.8331496667871970e-05  4.9093888254019233e-05  1.3184711890946912e-03  8.8546351120028779e-04  1.1496720881029796e-03  1.3242250081285192e-03  1.1453001528017252e-03  1.0217659488677968e-03  5.6379445474199118e-05  1.2677141846720121e-04  5.3520175976887978e-05  1.5726893021563091e-04  6.6441793930948213e-04  1.1445274077882567e-03  1.0263534365888593e-03  4.3377869194780624e-04  4.2918070174148061e-04  8.1877993609496267e-04  4.4356587599640306e-04  1.2916223437178715e-03  1.4836310253048028e-03  1.2695298921768820e-04  1.2372597888919326e-03  1.2023702284069369e-03  1.3968809432505908e-03  1.6795374680588311e-03  1.1617690984862996e-03  2.3317205282111255e-04  2.2107574436634105e-03  1.4288591175229475e-03  1.2456798398199419e-03  5.2658453813739994e-05  1.0236160587743428e-03  5.2873486306156785e-04  1.0405997848220232e-03  1.2442462210187672e-03  5.2699377814148800e-05  5.1345915336833622e-05  5.0064118173134446e-05  1.4382477551251071e-03  7.2822046264552640e-04  1.0211359492579676e-03  1.0193715060635268e-03  4.0150390144155584e-04  2.7799479811577946e-04  6.5067917400008884e-05  8.4142267549069710e-04  1.3176832966598573e-03  1.1962630807547101e-03  1.0436001843733486e-03  6.5881191361105143e-04  1.0272912311675398e-03  1.0292380970722069e-03  6.2073304325520093e-05  1.0747681455586656e-03  4.7272392917192947e-05  4.7027940441553071e-05  5.0073167437862730e-04  4.0612327633271522e-04  1.0233759502822363e-03  3.9591534253475919e-05  3.9669309811547750e-05  1.0206309982687767e-03  1.0223166045574784e-03  1.0223601329660914e-03  4.2333328712301271e-05  4.2588385761234289e-05  4.1418162721325701e-05  4.4096372254323300e-03  2.7784121916435071e-03  1.4743081942348367e-04  4.0431479300246451e-05  1.0189994440218753e-03  1.0334742039023769e-03  2.4257097022136555e-04  4.7441750005588446e-05  2.0109684835155662e-04  5.9394050968793023e-05  6.4656406995970006e-05  1.0242523168981330e-03  8.5781330657911097e-04  1.4505400582987993e-03  1.0247360248849186e-03  4.5022264912475037e-05  3.9606062535854614e-05  3.9399186417164230e-05  8.2370167550817905e-04  1.0433354098143967e-03  1.0296924567409227e-03  1.0258692501143878e-03  9.3293025366915019e-05  2.7188676775961976e-04  8.4938995922005114e-04  4.5937247917637270e-05  1.3873585480089275e-03  1.0668008594535922e-03  1.1055265479282929e-03  4.2029125681280148e-05  5.8522076634484755e-05  4.6059040932549289e-05  1.0853768906098986e-03  1.0363243323973685e-03  4.0022036418506608e-05  1.0434163823198556e-03  1.1280208525569163e-03  5.6702304535490304e-04  9.6206937109647025e-04  4.4260284414370168e-05  1.0289451652557384e-03  1.0311305747451585e-03  1.0325225620575428e-03  8.6642517177291459e-05  7.9979308826294237e-05  1.5426614764783044e-03  4.8414983879233897e-05  6.4092812829135090e-05  1.2338242359490070e-03  4.6578111076309236e-05  1.5029859394258613e-04  1.2689899290690997e-03  7.0058403505090269e-04  1.0193027332856964e-03  1.4066290391577814e-03  1.2378091104931193e-03  2.0090034906853592e-03  1.5937068505288386e-03  4.8457147809568689e-05  1.0286930906602469e-03  1.0341691675208847e-03  5.4541560036392639e-05  4.3059160524307133e-05  1.0450989429568519e-03  1.0188799017397904e-03  9.9316325621609481e-04  4.1798243763674413e-04  1.5861428344983558e-04  5.9446793962203450e-05  1.2201555506057454e-03  4.9875475397457822e-05  1.2765242282109656e-03  1.0304265879667906e-03  1.0478704029576950e-03  1.1213804562812135e-03  1.0307356509319963e-03  6.4722804876093444e-04  1.0750857369577025e-03  1.3247563771866700e-03  1.3330588729327218e-03  6.2404572413881753e-04  1.0772150981789642e-03  1.5589979213992133e-03  8.6234598418677324e-04  1.4721213315104268e-03  1.1725466404029126e-03  4.5380126572938961e-05  1.2878979018636678e-03  1.1565977813944898e-03  1.3124814042634919e-03  1.0741830981191199e-03  1.0398354017017682e-03  4.1758281506131579e-05  1.1665604491012135e-03  5.6666506687330496e-05  1.2955024404743385e-04  1.0230077411337052e-03  1.0609325691529777e-03  1.4767476378982000e-03  8.0590699633133331e-04  1.1105851564397538e-03  4.8462838295081000e-05  2.6640445468741812e-04  1.3990090235668246e-03  1.1232232976001110e-03  1.0365193658531176e-03  7.4395305219000622e-05  5.0241958706689694e-05  1.3754051128765190e-03  8.0626484517445544e-05  1.1206494636193263e-03  1.0460202701879982e-03  1.6371333462675034e-03  3.9759795767052828e-05  1.2838023253867765e-04  2.0770998363763915e-04  4.2919258754577127e-04  4.1797879862855737e-05  1.0289851171559178e-03  1.0327286349535285e-03  4.0729792281572492e-04  1.8473010557063260e-03  1.2329807847308763e-03  1.0180929490334440e-03  1.3842541907052551e-03  1.2570939812184320e-03  1.0051606236248423e-03  1.1776540864950121e-03  1.0694916142473081e-03  1.0547075166622878e-03  1.0277586291762408e-03  9.4365364769749625e-04  1.2317381633317056e-03  1.1547271702958210e-03  6.0146588568833559e-05  1.3999306971627333e-03  1.0195736031809494e-03  1.0207243027060011e-03  4.3700504017827696e-05  5.3397122536134482e-05  1.0263944672889895e-03  5.1343029944711586e-05  1.2305711129799778e-03  6.0127807528126896e-05  4.0783476013489177e-05  1.0275286527024273e-03  1.1216121984651062e-03  4.6245226091156832e-05  1.1247851945247413e-03  1.6311526073619961e-03  1.1870421764040527e-03  7.6205200381742632e-05  6.0458506212815145e-05  4.1441007404333946e-05  1.2872870991958766e-03  1.0353970766746622e-03  1.1165790099317604e-03  5.6265996467482133e-04  4.1611673467293941e-05  1.0199244028462166e-03  4.5482026528836358e-04  1.5343383585013229e-03  1.4301499116192709e-03  1.0408207562300170e-03  1.3370446741877106e-03  5.2382390713676156e-05  1.0342672930771628e-03  4.3047747004609899e-05  4.3448756115256101e-05  1.0390624774739502e-03  1.0237827961347764e-03  1.1888611051651783e-03  4.9981649421814273e-05  1.2301609112195110e-03  4.4782899815958654e-05  1.7102100668137980e-04  3.0661465399755146e-04  5.5126654218090048e-05  5.2998867885410711e-05  5.2401059420629165e-05  1.2855299419145543e-03  1.2056559721045116e-03  1.3685778162523330e-03  8.6429595623905864e-05  1.0179488470415565e-03  1.2411075498301681e-03  1.1450724741239888e-03  1.0205953492369503e-03  1.1360694763496992e-03  1.1081575735119962e-03  5.3483464624363075e-04  5.5944947814508626e-05  1.2985414672280838e-03  1.0225607206588135e-03  1.0750508211645527e-03  5.1313784750099303e-05  4.1363675797091460e-04  1.7986215963527677e-04  3.8319875957604740e-05  1.1985828685998785e-04  1.5443970678738101e-04  1.2625262828268849e-03  1.0252520451883467e-03  9.9413422654680349e-04  4.4321658343930638e-05  2.7231909374431410e-04  1.0710819139074152e-03  6.3510322661225300e-05  3.8321980365636078e-05  3.9162686439874677e-05  1.0225178585818466e-03  5.7386072820636805e-05  1.0262770382478516e-03  1.0267900654326108e-03  7.2798349673709005e-05  1.2346384014434177e-03  6.8706891776789081e-05  1.1286463330718571e-03  1.8595473560968992e-04  1.1519108539245547e-03  9.4340833155108944e-05  1.0265701794170733e-03  1.0244837616234343e-03  1.0187420724017716e-03  1.0189614339621361e-03  5.5274264112621110e-05  6.7297290540732223e-05  9.6701768330561806e-04  4.0483130349500696e-05  1.0223002548752733e-03  1.0369516401780466e-03  1.5938979869389516e-04  9.6049627629711483e-05  6.9726433818370582e-04  1.0236841161276576e-03  5.7373264860949909e-04  4.2764650342501591e-05  5.3794799267825115e-05  3.8345100020683846e-05  4.6055310618202253e-05  4.3902015413601304e-05  5.1861635291398023e-05  2.8932920764504694e-04  4.5492205526593540e-04  2.1141655282011534e-04  3.9121643592751209e-05  1.0477943651409235e-03  4.2653415378111627e-05  1.0466175927760556e-03  1.0711259461386698e-03  1.4510883634209383e-04  1.2046887735733633e-03  1.1626174195089275e-03  3.8236102437640672e-04  6.6909520891810523e-04  8.7860208331864541e-04  2.7009219277144024e-04  3.0462921381284444e-04  4.0501420964413682e-05  1.0216763891318476e-03  1.0789894319328591e-03  1.0263663763039987e-04  7.2312667943785162e-04  1.0257503486357344e-03  4.1370679230202911e-05  2.1096267440293666e-03  2.4589713240769869e-03  1.7375865959527008e-03  1.1335218015728842e-03  3.9590352105768260e-05  7.9982282332483317e-04  1.0376025104946523e-03  3.9064728221886395e-05  1.0198313395671707e-03  4.9980722108560365e-05  4.9168485025288393e-05  1.1587422426583491e-03  8.6794712046306800e-04  1.2444396103123670e-03  1.2373800531569707e-03  5.4579557463286155e-04  1.0945171800666933e-03  1.0397904088315338e-03  1.3216613400319601e-03  6.0300471024105349e-05  3.9077697434513948e-05  1.0501839874840601e-03  1.2825869532628743e-03  7.8250746225404471e-05  6.4641957568426373e-05  3.5549327717817491e-04  1.2829911343855505e-03  1.0565768246735281e-03  1.1121208640428755e-03  1.2519026976294170e-03  1.0386946231585822e-03  6.9910878938843324e-04  7.6932291664603969e-05  1.0888834776125059e-04  5.6006067316581812e-05  7.3716396702821845e-04  1.0323377853397450e-03  2.3121581857056086e-04  6.1988927257933634e-05  8.3284162012237607e-05  9.8732266995891940e-04  3.1850325539878907e-04  4.0693378155575509e-05  3.8712223882039655e-05  1.3794324980806456e-03  1.3281103655477474e-03  5.5364410239459188e-04  1.0324147706736303e-03  2.7692371758049599e-03  1.1026976928836109e-03  4.8818357985895219e-05  5.6437921140504519e-05  6.4812116032475454e-04  4.1061597286714430e-05  7.3748620893513089e-04  1.2063501141532245e-03  1.1729206541731651e-03  5.8366784326778054e-04  7.2923401232903660e-04  1.0098595302971250e-04  1.0643595620816173e-03  1.0353251701213716e-03  5.5567358398213883e-05  6.4089313505920256e-05  9.0607281131344834e-04  5.2164881261420355e-05  9.6409257209673430e-04  2.4691465984598457e-03  1.0224925822026971e-03  3.8989192162351924e-05  1.2819699635110270e-03  1.5481108129462413e-03  9.2899329350548820e-05  3.9328463493104994e-04  1.1137365692047384e-03  6.3284406690434014e-05  1.2158227808329561e-03  7.6735321950727149e-05  4.1834119547890270e-05  4.3654644119965704e-05  5.7309374932014102e-05  5.5794706836844706e-05  1.9023989696513597e-03  1.0281503184850131e-03  1.0257389343562816e-03  1.0276110461396209e-03  1.0687240501625938e-03  1.1606911056220995e-03  4.7453540120554749e-05  1.0738076173933046e-03  1.4685007904715122e-03  1.3070390932711923e-03  3.3210657697543307e-04  6.4184799557054240e-05  4.7459418626038261e-05  1.0225382717706979e-03  1.0333866630492770e-03  1.0581725168974673e-03  1.1032020397941997e-04  5.4267823156375264e-05  1.1690087041966795e-03  1.0186061500885640e-03  1.2251144577406291e-03  1.0186352782379680e-03  1.0180311278920678e-03  1.0378065545642492e-03  1.0286861201817686e-03  1.0183357015858367e-03  1.2594063658972655e-04  4.6561076431150847e-05  4.8470578435129244e-05  4.1014283210038419e-05  4.8928305717778312e-05  7.3112896673545663e-05  1.0358944036146587e-03  1.0341906921215638e-03  1.0325636516728646e-03  1.0253255425854910e-03  1.0393861392600102e-03  5.8295750168669659e-05  4.4940532896363003e-05  1.0246700362098549e-03  1.0179338857802054e-03  5.8312775071368428e-05  1.0204286756692665e-03  3.8832375963187811e-05  6.2277964748641082e-05  5.0300408778026188e-05  8.1493499308494513e-04  1.0191343282699807e-03  1.1702412035599385e-03  7.4679095612686279e-04  9.3088021837360601e-04  1.0409218647034462e-03  1.0305363534072985e-03  1.0646119540306000e-03  1.0385263481407299e-03  2.1318799803577045e-04  5.4339096896833898e-04  3.8553887937070633e-05  4.6662173968684397e-05  1.0678502084823132e-03  1.2022337385509652e-03  1.0191518900590976e-03  5.9122816522484047e-05  1.0355137043651502e-03  1.3351833306631648e-03  1.8395210151282754e-03  1.8186540728302109e-03  3.7568576083811924e-04  6.5331682140603214e-05  1.5725776566131782e-03  1.0504688260558491e-03  1.0238756560163919e-03  1.3143277117685149e-03  1.1782845637174367e-04  1.0339762886739340e-03  1.0307496069218646e-03  1.0297262639595202e-03  1.0289371625076310e-03  1.0324661035825617e-03  1.0914261439257237e-03  1.3352892080699906e-03  4.7972992004075808e-05  1.3138912975932178e-03  1.0601631606239705e-03  7.3788929363203683e-05  1.7351209280648582e-03  6.9264303756559585e-05  1.0300405862850356e-03  1.0556591730280691e-03  1.4178668978190735e-03  1.1140092163808529e-03  1.2692908387760789e-03  1.0368331757445335e-03  5.2993099945800157e-05  1.4968440733684988e-03  1.5138124255660538e-03  4.5001260487350079e-05  4.2535312983951932e-05  1.4560603702907060e-03  4.3089735764167122e-05  4.1460320649423225e-05  1.1840509241107398e-03  1.8128345657398358e-04  6.9114338714609770e-04  3.9804527442533703e-04  8.4287216916089887e-04  2.4422802224867169e-04  1.0331482367703605e-03  1.0353478192022876e-03  1.2251000993583425e-03  2.7291131273742241e-04  1.8761155144763809e-04  2.2807086313415484e-04  1.4491213740603997e-04  1.0228331069912114e-03  1.0316207783978677e-03  1.0997937504427686e-03  1.0277404076542789e-03  1.8562610247036652e-04  1.0259181885453662e-03  1.0253459108802352e-03  1.0827257405286626e-03  2.8416757012115270e-04  4.7262764689312992e-05  4.5874780704372801e-05  1.0232635592961653e-03  1.0908196146056969e-03  1.0297016631871708e-03  1.0304730500422178e-03  1.0280043177020304e-03  9.2099248479665370e-04  4.2135910247989893e-05  1.0360052411836412e-03  1.0468350966442578e-03  1.0215055532338821e-03  1.0218972142794582e-03  1.0209322452416594e-03  1.1572010143052493e-03  9.0945092361036496e-04  5.0839680905460127e-05  1.9300476734896202e-04  3.9228010724902870e-05  1.0855470756774439e-04  1.1600491726552768e-03  1.1084562019756338e-03  1.0348522603407365e-03  6.5375080435802770e-04  4.4219517835356800e-05  1.1935610630063934e-03  5.2301371348739078e-05  1.2058937852054716e-03  1.4814449893440509e-03  4.5297788419713857e-05  1.1126579219379431e-03  1.2355266642447163e-03  4.4723551281678208e-04  4.2840293062669472e-05  1.0185665298333331e-03  1.0349221625120123e-03  1.3585230474896896e-03  9.0264788875774288e-04  1.0457087537852647e-03  1.2934363660972710e-03  1.2712227493378088e-03  1.0311428198437852e-03  4.0338676823947838e-05  6.3695358893225217e-05  1.3079395997184660e-03  1.0524008660132190e-03  1.0487654538976863e-03  1.0206366107360016e-03  1.0188596568622519e-03  4.4497713670181360e-05  1.0184613691781460e-03  4.4750051181210356e-05  4.0988191645896819e-05  1.1968668081147520e-03  1.0226742362684264e-03  4.9350084225135120e-05  1.0708097991860258e-03  4.3177018468366705e-05  1.2579299116914603e-03  1.0203792739264864e-03  1.0213216304367717e-03  1.0221714948217742e-03  1.0201395396885085e-03  4.4799329045733