<?xml version="1.0"?>
<VTKFile type="UnstructuredGrid"  version="0.1"  >
<UnstructuredGrid>
<Piece  NumberOfPoints="6486" NumberOfCells="12696">
<Points>
<DataArray  type="Float64"  NumberOfComponents="3"  format="ascii">0 5 0  0 0 0  5 0 0  5 5 0  2.5 0 0  5 2.5 0  2.5 5 0  0 2.5 0  2.5 2.5 0  0 1.25 0  1.25 0 0  1.25 5 0  0 3.75 0  5 1.25 0  3.75 0 0  5 3.75 0  3.75 5 0  3.541666666666667 1.458333333333333 0  1.458333333333333 3.541666666666667 0  1.875 1.25 0  3.75 3.125 0  1.284722222222222 2.326388888888889 0  2.683189655172414 3.767959770114943 0  0.9375 0.9375 0  4.0625 4.0625 0  0.7252209595959597 3.026357323232324 0  2.763480392156863 0.9129901960784315 0  1.875 4.345238095238095 0  4.345238095238095 1.875 0  4.192708333333333 0.8072916666666664 0  0.8072916666666665 4.192708333333334 0  3.368055555555555 2.326388888888889 0  0.6837606837606839 1.738782051282051 0  3.285485245626782 4.324328415208927 0  2.551239698778062 1.693130150610969 0  1.827256944444444 2.868923611111111 0  3.464875022477093 0.6813924607921316 0  1.942880513719175 2.059558626187995 0  3.04563492063492 2.971230158730159 0  4.375 3.4375 0  2.13639445139758 0.5994472256987903 0  4.272228422619047 2.606956845238095 0  0.625 0 0  0 0.625 0  5 4.375 0  4.375 5 0  0.6400043240752655 2.384646170113389 0  1.347691225855598 1.660875475110776 0  3.515783617857982 3.723905460714006 0  3.125 0 0  1.875 0 0  0.625 5 0  4.375 0 0  5 1.875 0  0 1.875 0  0 3.125 0  1.875 5 0  5 0.625 0  0 4.375 0  3.125 5 0  5 3.125 0  1.489644181965304 0.6007147273217681 0  2.054597701149425 3.742302955665024 0  2.662520990197781 4.39452575763237 0  2.415835363784578 3.165530021913244 0  0.8679986894865213 3.602373689486522 0  1.267459753787878 2.886186079545454 0  4.099702380952381 1.365327380952381 0  1.316964285714286 4.438244047619047 0  3.7915135293491 1.959691594758709 0  2.875141124191255 2.118761176511833 0  3.00418010501169 1.397414179299248 0  0.4081721322167092 3.410647930198662 0  0.4166666666666666 0.9375 0  1.014190407998288 0.4422301359994293 0  1.383260571305984 1.162718286082048 0  4.53125 3.90625 0  4.453125 4.453125 0  3.772848162504192 4.48678272083473 0  2.8125 0.404329517041716 0  0.4538690476190476 0.4538690476190476 0  2.305461739347387 1.04517007574828 0  3.771263799175824 2.624190260297553 0  3.229617768018734 1.809956994202883 0  3.780190884441317 1.025307111692601 0  4.646337365591398 0.9375 0  4.537623451379149 0.4609485750426037 0  1.200477888421151 3.934852888421152 0  0.3536626344086022 4.0625 0  0.4623765486208503 4.539051424957397 0  4.0625 0.353662634408602 0  4.560525106689535 1.390989100915847 0  3.958439078571988 3.619844539285994 0  4.672619047619047 2.1875 0  2.1875 4.672619047619047 0  1.862808494877602 3.325947624431087 0  0.3268135998175443 2.8125 0  4.674181280189791 2.8125 0  2.283233994935276 4.138623547175983 0  0.9375 4.677879119362977 0  3.08488061581743 3.469889594488945 0  3.113427375573758 3.913955730709506 0  1.652847799068813 3.950848935641292 0  2.932652662909449 2.550542739521724 0  3.311350648514189 1.088831994878698 0  0.6770833333333333 1.295851139601139 0  0 1.5625 0  1.047214787840024 1.96818092308125 0  4.183331482095785 3.03958703580843 0  3.4375 5 0  1.071307777252521 3.246275861010018 0  0 2.1875 0  0.386576856303419 2.03125 0  1.713862716483534 2.439783116849799 0  1.775396256975935 1.665976816304977 0  2.231236976948428 1.443917394671254 0  2.373900732409897 2.086930260150635 0  4.114918237574474 2.221646174618671 0  3.661302567757379 4.099620139144836 0  3.378215938602977 2.734494874063393 0  0.9842097536079312 2.597286741306247 0  1.642795138888889 4.672619047619047 0  4.0625 5 0  2.099458800960004 2.567446522665629 0  2.616202751603346 1.297895893940078 0  5 4.6875 0  0.9937554350075428 1.512592975947215 0  2.8125 5 0  3.002695327068194 4.614055254615477 0  3.205627424097207 0.3852436382721472 0  1.678616581261621 0.927556612265266 0  3.365326698305438 3.196943731162083 0  1.554834936170314 3.120009882655813 0  3.108408340729323 0.7797187795784133 0  3.684368918102174 0.3728877601163941 0  2.716214835303553 3.39276351922003 0  2.37718583984784 3.551973401560441 0  0.3750662445374837 1.52191994866787 0  2.679073487930202 2.844160731602957 0  1.557635869750078 1.991068682985722 0  1.812595698561088 0.3839273018252746 0  2.512014721281916 0.6320641118792227 0  2.1875 0 0  2.349973454443689 0.3189980586887866 0  4.6875 3.59375 0  4.636052949022233 3.178355898044465 0  4.6875 5 0  3.345485909784306 4.665765449101383 0  0.536727472389443 3.749603193819277 0  4.349541499640203 1.116201826262156 0  2.886559045931982 1.774013674579691 0  0.6770833333333334 0.7142857142857143 0  1.5625 0 0  4.120842096538671 4.628726497527622 0  2.176157474177018 1.793470423744689 0  2.175650736889416 2.909863021769539 0  4.036616464259081 1.709699085170981 0  3.887974623473683 0.6492597046022868 0  3.4375 0 0  3.70675699592552 2.289666624772415 0  4.697265625 4.208984375 0  2.815177577303495 4.085937578239174 0  4.672619047619047 1.730733296184288 0  4.6875 0 0  5 0.3125 0  0.3125 5 0  0 4.6875 0  0.3276089296588581 2.484526834811734 0  0.712433309515852 2.065138854645612 0  0.6376435912223634 2.711473454001295 0  1.184991292170422 0.7222504400947201 0  1.31884329779317 0.3206944232264773 0  3.683609198994263 3.44428698533042 0  0.3125 0 0  0 0.3125 0  4.231797269642997 3.789141808928991 0  1.564375596050781 1.425998687184973 0  2.007640894175573 0.9032106925568466 0  0.955125897558294 2.276666098587227 0  1.43898735721003 2.611310720271951 0  1.954491523717513 4.040700257877075 0  1.752947649777421 3.652439445419346 0  2.509575750247638 4.678021307664052 0  4.687194709705067 2.499965519538002 0  1.5625 5 0  0.9375 5 0  5 2.8125 0  2.1875 5 0  5 1.5625 0  5 2.1875 0  4.0625 0 0  5 0.9375 0  2.8125 0 0  0.9375 0 0  0 0.9375 0  0 2.8125 0  0 3.4375 0  0 4.0625 0  5 3.4375 0  5 4.0625 0  4.010848109290813 3.306446973933037 0  0.3077461147713075 3.119700563473354 0  4.6796875 4.6796875 0  2.333079012424948 3.845757959077508 0  0.7829771267899832 3.317744656243421 0  1.159100632608513 3.532487125138763 0  0.799066251840424 3.893573750162776 0  1.57326499580282 4.255438189102632 0  0.7309366047093668 0.2991402264438908 0  0.3054777494262156 1.223275888123843 0  4.027475154280377 2.78211326942427 0  2.35270874745988 4.426658168476266 0  3.474236283732569 2.021154281686229 0  4.401414236174444 2.329446628171927 0  3.39403781747337 3.987097102903034 0  1.077524329801934 1.214100792470484 0  4.065611571711903 1.066085524514197 0  2.165399002716117 3.335637450367864 0  3.007639563081306 1.093684039371638 0  4.030818285732145 4.351883315180857 0  3.504115222530889 1.739284194222036 0  1.224503368215566 4.712091441401919 0  3.805634204685714 1.321528442399996 0  4.319233123479386 1.573547993867769 0  1.024007670021325 4.394604704797005 0  3.776400432023095 3.839003324979723 0  2.991819819453308 4.320567175146181 0  0.9782797534072181 2.886406017887129 0  1.763835134082104 0.6602345487826022 0  3.765182288741625 1.631193038541544 0  2.267959593989681 2.345053543725764 0  4.412434895833333 4.168294270833333 0  4.4072265625 4.7255859375 0  2.791493971314009 3.11210833271929 0  3.408766223032414 3.469500900677365 0  1.915147569444444 4.725484476461039 0  2.070301968506271 0.2605666686358055 0  2.767932250651506 1.530295992695836 0  3.280065043173439 1.364863281105779 0  4.45101570110842 2.974157152713635 0  3.521928862999512 2.96990445010402 0  2.552921961347576 4.008414007169315 0  0.2682955376854191 3.657555015841003 0  3.084522868361304 2.310593316718068 0  2.669255823227708 1.939379494498064 0  2.615884629473921 2.238841231570381 0  1.405652091971449 0.8877813821442277 0  3.25151486618811 3.68536115104276 0  1.963741569810629 2.331207252264507 0  4.017297980292599 2.486269171379106 0  3.869168920841219 4.748188103831625 0  3.596868753579134 4.77342723825056 0  2.41262958240343 2.764128584995838 0  1.266750578673391 1.404747710001619 0  1.559243962241121 2.85146506328516 0  3.128799423834764 2.052081657715259 0  0.6770833333333333 0.9778025793650794 0  0.2083333333333333 0.78125 0  1.978224492765132 3.087074731032578 0  4.051448850909273 1.969392119104174 0  1.320577095006813 4.172234780971559 0  3.214261103850064 2.534397293281829 0  0.2635729089754111 1.779234736680035 0  3.510775680035133 4.460728640112889 0  2.603081405968802 0.2432579385496493 0  2.866341315154884 0.6662105505481998 0  3.000919221100777 0.2270278495648781 0  1.298858304121393 2.05917319923859 0  2.020292299736597 1.589794568392338 0  0.7401688396476035 4.470780315741533 0  0.6721783535561408 4.733125588707921 0  3.753712482075402 2.874301339727514 0  3.557348205914658 2.491958694539413 0  1.094565978195436 0.2011034254079851 0  0.9338148378011396 0.6833568465908735 0  2.945530578578538 3.701798332963805 0  3.111707186654356 3.216904195825605 0  1.341791111822685 3.293123262233967 0  1.632939924064587 1.184895891095613 0  0.6335477978936732 3.517393619499591 0  0.5576014611130192 3.210998966942492 0  1.564344196470102 0.3630498725895039 0  2.75362450242839 4.626680495816594 0  3.571304405229554 1.192452351107437 0  3.522934592621944 0.9359134489437148 0  4.453125 3.671875 0  4.765625 3.828125 0  1.055906321410838 4.14310472322957 0  4.795146539102229 0.46875 0  4.767156345199235 0.7178596932040019 0  0.2048534608977711 4.53125 0  0.232843654800765 4.282140306795998 0  0.5393715189906129 4.270810883024032 0  4.329922600274667 0.2750645887059072 0  4.275515096738972 0.5448389557295173 0  4.477747423652795 0.7252838358993123 0  0.2002829820452772 0.46875 0  0.4352678571428572 0.6956845238095237 0  0.5007241582667088 0.2123388122114133 0  4.672890923830735 0.2500902110494848 0  0.4308009280819452 4.783624996516437 0  2.104871305393774 4.438653689007242 0  0.2274454167838428 0.2274454167838428 0  3.446466574593436 0.4359605369011901 0  2.12354112127588 1.217588426759619 0  2.309175236825235 0.7888355970690434 0  2.556178570281936 1.054299163237582 0  0.578683248637
[...]
<PointData  Scalars="f_10845-0"> 
<DataArray  type="Float64"  Name="f_10845-0"  format="ascii">-2.5982089674752392e+03  -7.4524714750701215e-01  -1.1005449722220263e-01  -8.7960027795567913e-02  -4.1980619996371538e-01  -1.0626509948375457e-01  -3.2827941820406102e+02  -1.9344162280038393e+08  -4.0431156616311070e-01  2.5144826578774661e+02  -5.8003707396453053e-01  -9.1392872153159817e+02  -5.7273446535779699e+05  -1.0838447402849039e-01  -2.6017647541103933e-01  -1.0508769971292270e-01  -1.0351016333902514e-01  -2.8361245295217630e-01  -2.4354660511066948e+04  -4.9919681332303861e-01  -2.5792499982911210e-01  5.5697256357941949e-01  -2.5846890682727081e-01  -6.0983401592223108e-01  -2.0073154978777413e-01  -3.3261710385139058e+06  -3.8391539107560968e-01  -8.4718738706956337e+03  -1.8337857239306979e-01  -2.0218895260488512e-01  -6.0855113159217173e+04  -3.0726850998353378e-01  8.7584781009207404e+00  -1.8346943715959302e-01  -4.1199573942716911e-01  -3.6340907654015236e-01  -2.9480701483069560e-01  -4.6737575361034317e-01  -3.3769053140801314e-01  -1.7913018796390048e-01  -4.6554175523131369e-01  -1.9161403476384473e-01  -6.6077628034052638e-01  -6.9238062692297753e-01  -1.0446348780414971e-01  -1.0186894305674823e-01  2.4296143183740714e+04  -5.2253903108184330e-01  -2.5349734339078306e-01  -3.3783372892901775e-01  -4.9805420414657370e-01  -1.6715006890315767e+03  -1.8154652832022236e-01  -1.0619571945264594e-01  6.9815535326852498e+05  -1.1458584565111499e+07  -7.7703582335471128e+02  -1.0943116164288109e-01  -4.2934141935907210e+04  -2.4737961660718382e+00  -1.0487346731708053e-01  -5.4870689341655554e-01  3.5901933108415776e+00  -2.7785393467147186e+00  -3.3160208361757432e-01  -7.7827725918750884e+05  1.3509186273460520e+02  -2.1392009136463391e-01  -1.3859813774109018e+04  -2.5257986610403238e-01  -3.7036034775436394e-01  -3.5375472593272761e-01  -2.4878519148294632e+06  -5.9204009106821032e-01  -6.1021714840472330e-01  -5.6103210544814930e-01  -1.5985913067209762e-01  -1.5131529829928478e-01  -1.6239498893570692e-01  -3.7874619776351104e-01  -6.7323876230812296e-01  -4.4411265843013531e-01  -2.5590377197318726e-01  -3.2525642757971718e-01  -2.5466984612925525e-01  -1.4815383478275693e-01  -1.6168836390888983e-01  -1.3765472287781941e+05  -1.1547579261408238e+05  -1.0908496837526849e+04  -2.1995369046390581e-01  -1.5639778479511890e-01  -2.2862498111751584e-01  -1.4340685149102195e-01  -1.5865676896380378e+03  1.8255992902160775e-01  -3.4291116378498875e+07  -1.4193525085492001e-01  -6.3801911112961186e+01  -4.8585553939240444e+03  -2.8930923793427360e-01  -2.3514829001517867e-01  -2.6819073321028933e+04  -3.6184704828206743e-01  -3.1329282366147565e-01  -5.4485026110640244e-01  1.5056871330919788e+04  -2.4502344478800495e+00  -2.0375452468878047e-01  -1.1377137988928809e-01  -2.9585459630916873e+05  -2.6513888983675567e+06  -2.6086948171189935e+04  -3.5079619996881495e-01  -5.0605864249338917e-01  -4.5318095853277385e-01  -4.3346957290412264e-01  -2.1079042265058248e-01  -2.0916816542401279e-01  -3.0572156420816610e-01  8.9137865957900863e+02  -3.7994330880605185e+03  -1.0278324845253199e-01  -4.0764275611661915e-01  -4.0438225135023692e-01  -1.0002204370151226e-01  -5.6800519302275676e-01  -5.1818499413302085e+01  -1.6048561515536650e-01  -3.2814259906149312e-01  -5.2443104100432780e-01  -3.0105085672045212e-01  1.9392355170270395e+01  -3.4018460298842829e-01  -2.6616535935501429e-01  -3.0124995647298625e-01  -2.7109800227011066e-01  -2.6041429512668503e+02  -3.6622356113868293e-01  -4.7450793413011266e-01  -5.0724858113892968e-01  -4.1616175571693703e-01  -4.5781054016192940e-01  -4.3658565260639592e-01  -1.4098126825694424e-01  -1.4685630207577718e-01  -9.8354035911835891e-02  -1.3864231419085868e-01  -4.6721711327441898e+05  -1.8223180544522791e-01  -3.6965687503705125e-01  -6.4312391566787530e-01  -5.4003542341484878e-01  -1.4371500047914892e-01  -4.6019322568638554e-01  -3.6321434654682150e-01  -2.2095527154455272e-01  -2.4014044258470904e-01  -2.9860765880929113e-01  -2.6377251068750107e-01  -1.3801687669994298e-01  -2.1255922275922448e-01  -1.4326098959102554e-01  -1.4452610019843395e-01  -1.1011162959148073e-01  -2.2396748580940944e+03  -9.8733737963191088e+03  -9.6311803999753285e+05  7.6093592941320537e+01  -9.0334707157313169e+04  -5.8828345413539807e-01  -5.7076672638373183e-01  -2.6195024019182434e-01  -7.0323488999729533e-01  -7.0351645030600707e-01  -1.9520026365065735e-01  -5.3480974054826069e-01  -4.8214703362737793e-01  -2.1603502738829096e+02  6.1093998797469862e+00  -2.3895220756232293e+03  -6.5590075225195073e+02  -2.3363482615347903e+02  -1.4056501849478062e-01  -9.5499957143893801e+02  -1.0924092213195677e+03  -1.0544945673040967e-01  -6.0782011196668384e+02  -1.0694495451497994e-01  -1.0624873626923041e-01  -2.2025638029662009e-01  -1.0936800338537787e-01  -3.7871634600622317e-01  -6.1984873182196520e-01  -1.3977759646178326e+01  -4.9687740289364897e+07  -2.5998451416098438e+06  -1.1869273359778969e+05  -1.0509898786732513e-01  -1.0481197550542568e-01  -2.2482276872123205e-01  -9.9610857063414529e+06  -1.2396340003907845e-01  9.3281957096586965e-01  -2.5578352364326934e+06  -3.8758124151591962e+05  -2.2310277968190290e+05  -2.4505900456030548e+04  -6.4683709953464164e-01  9.3010486791794111e+00  -2.2309423485180016e-01  -3.1228519582092605e+02  -2.9365452822412424e-01  -1.7478645997138254e-01  -2.2469739438904979e-01  -5.7806667841364501e-01  -2.1799336073481418e-01  -2.5278011735435396e-01  -3.5248442674689429e-01  -1.7569912577677804e-01  -2.8910706255344482e-01  -4.3113033789657684e+03  -2.5127669991149520e-01  -1.8642343468956041e-01  -2.0760617526658622e+04  -2.3294334393048385e-01  -1.7291245739804553e-01  1.3461207731085049e+04  -5.1357299924580158e-01  -2.5502684255651498e-01  -4.2867837924874724e-01  -1.6851153969512511e-01  -1.2955012683481362e-01  -3.3482536636604449e-01  -2.8094127513036371e-01  -2.4246404718870313e+03  -4.7350325774961693e-01  -3.8446603502039772e-01  -3.1757463449041140e-01  -1.6951214599663761e-01  -2.8685898068287496e-01  -1.3206590960087639e-01  -8.1145786619854462e+05  -3.4352036310184325e-01  -3.9685878917595446e-01  -4.0324601310163938e-01  -5.5964615482567526e-01  -2.6208560693969607e-01  -4.3447693724241865e-01  -2.2401273826194279e-01  -1.3118768808060530e-01  -1.2870664050514555e-01  -3.8020591762641903e-01  -5.5308707936686508e-01  -8.6701385964940112e+00  -3.3814614086731032e-01  -6.2227554460801793e-01  -3.9792088265977299e-01  -3.9437225493859529e-01  -2.1890006054255606e-01  -4.5287141156921964e+04  -3.2674077215102160e-01  -1.0605257258520694e+04  -1.6622003516420103e-01  -4.0556148325407582e-01  -3.7043635874798209e-01  -3.5450163067222634e-01  -3.0780225648338932e-01  -4.8038255077632758e-01  -1.4083321024156547e+04  -4.0103283674101726e+03  -2.5755433519885579e-01  -2.8326306892786102e-01  -5.9968152348629811e-01  -6.2012787699114424e-01  -2.6202125653377950e-01  -3.1581608423937413e-01  -1.8531652214893634e+03  -5.3040099048306788e-01  -1.3484659504124851e+06  -5.5923324575604275e+06  -5.3937459590727532e-01  -1.2016666507024535e+01  -2.8073973934954682e-01  -2.8791546260857037e-01  -1.6926491082379899e-01  -1.3172066579593661e-01  -6.1472284210541526e+04  -1.3144319701654342e-01  -1.3500675186193120e-01  -1.8263313588942561e+04  -3.9753424736021072e+04  -3.9916176218902510e+04  -1.8698504289152995e-01  -1.9331906027951865e-01  -1.6846589867955147e-01  -7.0012753351625823e-01  -6.4500620130790787e-01  -6.7725720120550115e-01  -1.4607208853432355e-01  -4.9625866929139247e+03  -2.6289496933325195e+03  -7.0911189715486045e-01  -2.9666809161327912e-01  -4.6706927223549338e-01  -4.4359868905489580e-01  -4.1204193265522332e-01  -1.6504909341476648e+05  -3.1583066578522884e-01  -3.9250996885210815e-01  -2.8847218649605010e+05  -2.4500539152410111e-01  -1.3598844281395311e-01  -1.3229623310111144e-01  -1.2743854853773748e-01  -5.8795740041321809e-01  -9.0267966230975013e+04  -3.0709855871605489e+05  -3.4516800732437147e-01  -1.8087974470288024e-01  -3.4194238656787418e-01  -2.6652496923437430e-01  -2.6927313044435730e-01  1.6083699824592551e+02  1.0811189520953080e+01  -1.8403101566481736e-01  -5.1974000352793492e-01  -1.6965451800610110e-01  -3.2819895724656107e+00  1.2289309135040217e+05  -1.3190582705195489e-01  3.0317252010816145e+02  8.9897682956108333e+00  -2.0710338118104232e-01  -2.1750365674690911e-01  -2.2954103889943997e-01  -6.8246303894628772e+02  -1.1477122053599607e+07  -8.2030241772513732e+07  -1.2280697154723348e-01  -1.6244713137581590e-01  -4.6639437848950466e-01  -3.1797891573905218e-01  -3.1286470772105740e-01  -1.8852329927802025e-01  -2.7838413067857348e-01  -1.2298678927631264e-01  -2.0970846049319275e-01  -3.7704375102202559e-01  -2.5773069482969577e+03  -3.9065533923860241e-01  -4.8622016766565821e+00  -5.8894925903941531e-01  -9.6942903922658627e-02  -3.1420806761110209e-01  -5.1432620036969064e+06  1.1478198072921339e+07  -1.2303872099952175e-01  -1.2425880066032546e-01  -1.1756955141331653e+02  -5.2451862042614221e+03  -1.0644123576931068e-01  -2.3021188071820556e-01  -1.9152487334300999e-01  -3.8212566281973237e-01  -1.1887763272607260e-01  -3.4660008673599818e-01  -1.9898532691915066e-01  -1.6448609048716015e+04  -2.2241166055151489e+03  -3.8327300803279651e-01  -2.2911984135973338e+07  -6.3991232435015866e-01  -1.7004229648776462e-01  -3.0833442089907820e-01  -4.4909046555388910e-01  -4.3220176714200809e-01  -4.8837257920833013e+00  -4.7572437808943802e-01  -5.1093978324863809e-01  -5.2042992596585225e-01  -4.8400389960861029e-01  -2.3311693086637333e-01  1.8392193976360812e-03  -7.9927021031811651e-02  -3.3719706522109005e-01  -9.6676775246800428e+00  -2.3099125986645081e+03  -1.5751897860938993e-01  1.0055147929802255e+00  -4.1647081130168034e-01  -5.8379535056138065e-01  -9.7658662671166494e+03  4.5192079633539697e+02  -4.9182307237313444e-01  -1.8127863568719357e-01  -3.5760496983558193e-01  -3.1950336333758628e-01  -1.5255636669199751e-01  -3.7123270518109708e-01  -1.1515569748245185e+00  -1.9171812131402170e+05  -2.3676322284654075e-01  -1.9490582403045495e-01  -3.4560125857108009e-01  -1.9909341393670990e-01  -1.7186147811651004e-01  4.7899700115843189e+03  -5.0344872386584771e-01  -1.2571996765716381e-01  -4.3372712116508688e-01  -4.2207446913018815e-01  -4.3945221081438635e-01  -1.7973012257539422e-01  -1.0180724040061008e+06  -5.1601774749934120e+05  -2.7839648558781438e-01  -5.5719377486109878e-01  7.2802958153968635e+00  -9.7792452748724054e+02  -4.0686130360882156e-01  -2.3977390226603096e-01  -2.4788272545858012e-01  -1.5856604609920130e-01  8.4810137923122966e+02  8.8470789286448996e+02  -2.4172919401175209e+05  -2.8074821574971692e-01  -2.3192546522083235e-01  -2.1269041435798244e-01  -5.5962677665687033e-01  -3.5603391500215570e-01  -1.7012523357733285e+03  -6.2461759366024689e+03  -2.1805881730523180e-01  -4.1457339054454695e-01  -6.8583215516893077e+04  -3.8053166027357505e-01  -2.0804875057286801e-01  -5.4961915925987925e-01  -1.5962332410858462e-01  -2.0445995563252000e+06  -4.6145349565420851e-01  -2.7295640007400751e-01  -1.1468554824482101e-01  -4.9938325095647146e-01  -2.9774386483523418e-01  -3.7853647815281194e-01  -4.9157513758681992e-01  -1.6315337277961281e-01  -3.0432341519896949e-01  -2.2562210539004809e+05  -2.1595512495038646e-01  -1.3963252209126889e-01  -1.6797897823303021e-01  -7.0040978372456641e+02  -4.8059063115085920e-01  -3.5098134072194870e-01  -3.8717577045204904e-01  3.3388079494263188e+01  -2.8531079964954098e-01  -3.3258791742250154e-01  6.6066949374962738e+05  -2.0116280632354155e-01  -2.0819241695052157e-01  3.5475832862059659e+04  -5.4789260232087017e+03  6.1603889689039990e+00  -3.3399091145494536e-01  -2.0519821142990058e-01  -2.4297010431558463e-01  -5.3952243350515239e-01  -5.0999879518898028e-01  -4.3977507005137328e-01  -3.9421256591103848e-01  -3.9436410880328687e-01  -2.8159517760143843e-01  -2.2397157142004775e-01  -3.2130803143726661e-01  -6.2241846009086521e-01  -1.2954387729238126e+03  -1.5120314735883855e-01  -1.4766535300756234e-01  -8.9349561728757453e+03  -2.3842272736194786e+01  -3.8973393270536949e-01  -5.4433056455982831e-01  -4.5967155839240209e-01  -7.4527774822752346e-01  -2.9979328619137596e+04  1.6659818629354686e+02  -3.6171451285651052e-01  -2.0039144604499129e-01  -3.4856282901319541e-01  -1.0630806051147422e-01  -1.4442759721047299e-01  -2.4806562358895570e-01  -1.7993206426273897e-01  -3.7803043439205200e+05  -1.8467178098687220e-01  -2.3044280387926894e-01  -3.2466475580838322e-01  -4.2270382705951903e-01  -6.4025539279640020e-01  -1.0885988502171509e-01  -1.2776282688966661e-01  -1.3711619823007297e+03  -4.9690502855759244e-01  -6.3099582772423467e+05  -1.0730562658762331e+06  -2.7504937151634479e-01  -1.2515630105581818e-01  -4.8367379394077209e-01  -3.4353208718275699e-02  -4.8545944169953031e-01  1.1490541863284287e+01  -2.3128113958489507e-01  -1.2463989660768500e+06  -1.4117001805653900e+05  -2.2289824899158798e+03  -2.2867663626705930e+03  -4.5135523050642773e-01  -5.2824341237937278e-01  -3.9602239684343815e-01  -1.5229233632376035e-01  -1.3460662295831846e+04  -1.9947707315007217e+04  -2.8689680408102802e-01  -2.7090987401989453e-01  -2.4870251045145553e-01  -1.1797745155721386e+05  -1.9057549425728568e-01  -2.0026348033296743e-01  -4.2552037136397791e-01  -1.0787531508819931e-01  -2.0434390167571825e-01  -2.1041791335275609e-01  -2.3465912481147500e-01  -1.2230953639163854e-01  -1.5014119141083340e-01  -1.2521153125925216e-01  -1.0942151707219336e-01  -6.4056006798561259e+02  -1.9867968355346799e-01  2.9272145420909396e+03  -3.2419494347307591e+02  -3.1657042085511716e-01  -1.6127671942290331e-01  -1.2212618071385645e-01  -3.0489149526036197e-01  -1.2082593568212896e-01  -1.5248175572472208e-01  -3.9149628304439915e-01  -3.7415202527869418e-01  -1.5212902406908652e-01  -2.4168427554704082e+04  4.5225258042652221e+01  -5.0259333326042621e-01  -2.3600770061181495e-01  -3.0984187300848503e+03  -1.6608963618989708e-01  -6.5809219207397440e-01  -6.3748370359995521e-01  -6.2549893154237024e-01  4.8594238213475566e-01  -1.2660520327235519e-01  -2.8523223110182439e-01  -7.8310612395676377e+04  -1.2552496480892755e-01  -9.2954352814615449e+03  -3.5015159111611055e-01  -3.0134365287101827e-01  -1.5189955522182394e-01  -1.1584347659271992e-01  -3.2963153709682874e-01  -1.4960536526101834e-01  -1.2298211926168399e-01  7.9758593012868957e+01  9.5461163081743107e+03  -3.0145699730840342e-01  -1.6140282483623389e-01  -1.2393856269550658e-01  -1.1233686441512218e+03  -2.4554668242128408e-01  -5.9178303572870317e-01  -3.3413715031752389e-01  -1.0493036712894840e-01  -3.8846795662071726e-01  1.1121273651416475e+02  -1.1293794475581265e+01  -2.8100504859520720e-01  -2.7135504367329948e+04  -4.1208419441092975e-01  -4.5973666860792578e-01  -1.6242923088885858e-01  -2.5699354232225996e-01  -6.6083576260784560e-01  -7.2460934946019100e+06  -5.6561157876783097e-01  -5.7886566751650936e-01  -5.6291512132474553e-01  -6.0234630658663313e-01  -6.0220215195829596e-01  -1.2425501775001636e-01  -1.0629089347842013e-01  -3.6418552097804252e-01  -4.2836233810366908e-01  -3.9126428240776084e-01  -1.4500923938353518e+06  -6.8900899992836850e-01  -2.6639602819938379e-01  -1.4829528420661070e-01  -4.7825449419587435e-01  -1.7629988232479396e-01  -1.6544288171307503e-01  -1.5358845580844593e-01  -2.4270586917066928e-01  -1.6129670024161685e-01  -4.6035235393246876e-01  -2.0946520319861242e-01  -3.6368461764840215e-01  -3.8419246186964173e+01  -7.1872538468088680e+02  -7.2262276044568408e-01  -7.1818916058549898e-01  -1.9864652178840084e-01  -3.9889330979942705e-01  -1.3737186286047226e-01  -6.9311339550518714e-01  -7.6747343389581467e+04  -1.2418882253024491e-01  -5.5166955658727546e-01  -5.3914522383147934e-01  -3.0486561042777166e-01  -2.1282198615367562e-01  1.4178414780860720e+01  -4.6379878750004755e-01  -1.0329577522170330e-01  -6.5725379098897752e-01  -1.7519366494811645e-01  -2.1915884021688034e-01  -4.8651317374514153e-01  -1.8993205340510219e-01  -6.0157359961090451e-01  -2.6991032326515573e+06  -1.5380609521604412e+04  -3.4306554826311236e+04  9.8901604383690458e+00  -1.9725943917061706e-01  -2.9772444242366686e-01  -3.2287877280239358e-01  -4.1740791541106437e-01  -2.7363875588178493e-01  -2.3665246366287360e-01  -1.4111033365793943e-01  -1.2216137724294980e-01  -5.1999476561539457e+04  -6.6926042706508107e+07  -2.8250943872922953e+01  -1.2195588682508042e-01  -4.3888937843414899e-01  -1.0049588212419107e-01  -8.7023836598995888e+02  -1.0330321290897361e-01  -4.9712091406248337e+03  -2.2803339848315886e+03  -1.4292339003496730e+02  -5.4586766129267979e+06  -1.1085120784829921e+03  -1.0494805677594372e-01  -2.7953608721912493e-01  -3.1812609004509390e-01  -1.0635393891604575e-01  -1.0576160858728732e-01  -1.0509977175055056e-01  -1.2263287768400845e+06  -1.8902482255040810e+08  -1.0092775603465745e+08  -4.6496566991364591e+02  1.8438179914087041e+03  -5.1937995563616801e-01  -2.3992653326818505e-01  -2.6057562921481507e+05  -1.8888599584190097e+03  -6.8168016787506958e-01  -2.0192949986653701e+04  -1.1004544171549144e-01  -5.9992009845503758e-01  -3.5858389599699991e-01  -5.7306672287477334e-01  -8.4440664170289281e+00  -1.0289216951059875e-01  -1.0274311439991472e-01  -9.5686179662679463e-02  -9.4554890953866086e-02  -2.4452334270785671e+07  -1.3935654287805768e+01  6.8518112542739527e+00  -1.0512190020097874e-01  -1.0524793896409193e-01  -1.0924197342594286e-01  -2.5181575314922300e-01  -4.3947165079459268e+01  -2.4703890868914558e-01  -1.8221064544197918e+03  -3.6083671651230775e-01  -3.2028415185477064e+02  -5.7839804042405951e-01  -5.6175939784859341e-01  -5.9317880108122056e-01  -1.6322019340791544e-01  -6.3012550247882115e-01  -4.9801698217006402e-01  2.6324375819623217e+01  -1.1945790416030330e+05  -1.3499888374670628e-02  -4.6342942756627947e-01  -6.7631616448242839e+03  -1.9578394921476319e+07  -1.1613583206420079e+07  -5.2260098105029864e+06  -3.2052132368065402e+07  -8.3781198179542329e+01  6.9400857149125117e-01  -1.6075679478063035e-01  -2.5515495316709547e-01  -2.6330685293638822e+02  -1.8155811338019637e-01  -5.3407720891024713e-01  -1.2393089905654044e-01  -1.0985996610374330e+07  -3.8536146044341029e+02  -4.3431002731117807e-01  3.2092192693848972e+01  -3.5186094605121943e-01  -9.1684666945322406e+03  -3.6659168106672146e-01  -4.4436896168517903e-01  -4.2533659290553055e-01  -2.4733150975490675e-01  -1.5245489799383175e-01  -4.3665537537375843e-01  -1.8703071031766233e-01  -1.7269256008564376e-01  -2.3869797152386818e+00  -3.0575434060475959e-01  -5.1779270621294660e-01  -2.9229463667144323e-01  -5.7056667455847243e-01  -1.6292070440186754e-01  -1.6660036098212312e+05  -6.0301327126286451e+04  -1.9199399220718513e-01  -2.4351377776571029e-01  -2.3572285035001900e-01  -2.0947553340683764e-01  -2.1291577276176527e-01  -2.3751028270715295e+04  -4.5561631366844840e+07  -5.2980226755264970e-01  -6.7782025354384852e+05  -4.0433065734898632e-01  -4.2624438623352762e+05  -3.1617823345257557e+05  -4.4191878184429916e+00  -3.5659658952471468e-01  -2.7087332118205770e-01  -2.6090521096487551e-01  -6.9146933177579194e+04  2.9318030361154297e+00  -4.3000570928007159e+06  -1.3060001373257609e+06  -1.4560599178482678e+06  -4.4612038530211590e-01  -1.8523544023429311e-01  -1.2894925290392334e+03  -2.7965876720198173e+02  -1.5184486272988530e+04  -2.9105490907269475e+04  -1.1305349840408555e+04  -1.4294839623943484e-01  -3.3140050068055327e-01  -3.6550701341584579e-01  -1.6485095821497070e-01  -1.2829483619008625e-01  -1.7917314234197443e-01  7.5692952580233941e-01  5.9869081522509568e+01  -2.6092972533479353e+05  -3.2429905590493019e-01  -2.2661972219794269e-01  -5.2148637692489919e-01  -3.9719894144796730e-01  -1.4187139912618252e-01  -2.8781822710346555e-01  -2.5330030395359893e-01  -1.8768576892310157e-01  -1.7256218725191735e-01  -1.230