<?xml version="1.0"?>
<VTKFile type="UnstructuredGrid"  version="0.1"  >
<UnstructuredGrid>
<Piece  NumberOfPoints="6486" NumberOfCells="12696">
<Points>
<DataArray  type="Float64"  NumberOfComponents="3"  format="ascii">0 2.5 0  0 0 0  2.5 0 0  2.5 2.5 0  1.25 0 0  2.5 1.25 0  1.25 2.5 0  0 1.25 0  1.25 1.25 0  0 0.625 0  0.625 0 0  0.625 2.5 0  0 1.875 0  2.5 0.625 0  1.875 0 0  2.5 1.875 0  1.875 2.5 0  1.770833333333333 0.7291666666666666 0  0.7291666666666666 1.770833333333333 0  0.9375 0.625 0  1.875 1.5625 0  0.642361111111111 1.163194444444444 0  1.341594827586207 1.883979885057471 0  0.46875 0.46875 0  2.03125 2.03125 0  0.3626104797979798 1.513178661616162 0  1.381740196078431 0.4564950980392157 0  0.9375 2.172619047619047 0  2.172619047619047 0.9375 0  2.096354166666667 0.4036458333333332 0  0.4036458333333333 2.096354166666667 0  1.684027777777778 1.163194444444444 0  0.3418803418803419 0.8693910256410255 0  1.642742622813391 2.162164207604464 0  1.275619849389031 0.8465650753054845 0  0.9136284722222221 1.434461805555556 0  1.732437511238546 0.3406962303960658 0  0.9714402568595876 1.029779313093998 0  1.52281746031746 1.485615079365079 0  2.1875 1.71875 0  1.06819722569879 0.2997236128493951 0  2.136114211309524 1.303478422619048 0  0.3125 0 0  0 0.3125 0  2.5 2.1875 0  2.1875 2.5 0  0.3200021620376328 1.192323085056694 0  0.6738456129277992 0.8304377375553881 0  1.757891808928991 1.861952730357003 0  1.5625 0 0  0.9375 0 0  0.3125 2.5 0  2.1875 0 0  2.5 0.9375 0  0 0.9375 0  0 1.5625 0  0.9375 2.5 0  2.5 0.3125 0  0 2.1875 0  1.5625 2.5 0  2.5 1.5625 0  0.7448220909826522 0.3003573636608841 0  1.027298850574712 1.871151477832512 0  1.331260495098891 2.197262878816185 0  1.207917681892289 1.582765010956622 0  0.4339993447432606 1.801186844743261 0  0.6337298768939392 1.443093039772727 0  2.049851190476191 0.6826636904761904 0  0.6584821428571428 2.219122023809524 0  1.89575676467455 0.9798457973793544 0  1.437570562095628 1.059380588255917 0  1.502090052505845 0.6987070896496241 0  0.2040860661083546 1.705323965099331 0  0.2083333333333333 0.46875 0  0.5070952039991439 0.2211150679997147 0  0.6916302856529919 0.5813591430410241 0  2.265625 1.953125 0  2.2265625 2.2265625 0  1.886424081252096 2.243391360417365 0  1.40625 0.202164758520858 0  0.2269345238095238 0.2269345238095238 0  1.152730869673694 0.5225850378741401 0  1.885631899587912 1.312095130148776 0  1.614808884009367 0.9049784971014416 0  1.890095442220658 0.5126535558463003 0  2.323168682795699 0.46875 0  2.268811725689575 0.2304742875213018 0  0.6002389442105756 1.967426444210576 0  0.1768313172043011 2.03125 0  0.2311882743104251 2.269525712478698 0  2.03125 0.176831317204301 0  2.280262553344767 0.6954945504579233 0  1.979219539285994 1.809922269642997 0  2.336309523809524 1.09375 0  1.09375 2.336309523809524 0  0.9314042474388009 1.662973812215543 0  0.1634067999087722 1.40625 0  2.337090640094896 1.40625 0  1.141616997467638 2.069311773587991 0  0.46875 2.338939559681489 0  1.542440307908715 1.734944797244472 0  1.556713687786879 1.956977865354753 0  0.8264238995344066 1.975424467820646 0  1.466326331454725 1.275271369760862 0  1.655675324257095 0.5444159974393489 0  0.3385416666666666 0.6479255698005697 0  0 0.78125 0  0.5236073939200119 0.984090461540625 0  2.091665741047893 1.519793517904215 0  1.71875 2.5 0  0.5356538886262603 1.623137930505009 0  0 1.09375 0  0.1932884281517095 1.015625 0  0.8569313582417669 1.2198915584249 0  0.8876981284879677 0.8329884081524883 0  1.115618488474214 0.7219586973356271 0  1.186950366204949 1.043465130075318 0  2.057459118787237 1.110823087309335 0  1.830651283878689 2.049810069572418 0  1.689107969301489 1.367247437031697 0  0.4921048768039656 1.298643370653124 0  0.8213975694444444 2.336309523809524 0  2.03125 2.5 0  1.049729400480002 1.283723261332814 0  1.308101375801673 0.6489479469700392 0  2.5 2.34375 0  0.4968777175037714 0.7562964879736076 0  1.40625 2.5 0  1.501347663534097 2.307027627307738 0  1.602813712048603 0.1926218191360736 0  0.8393082906308107 0.463778306132633 0  1.682663349152719 1.598471865581041 0  0.7774174680851571 1.560004941327907 0  1.554204170364662 0.3898593897892066 0  1.842184459051087 0.186443880058197 0  1.358107417651776 1.696381759610015 0  1.18859291992392 1.77598670078022 0  0.1875331222687418 0.7609599743339348 0  1.339536743965101 1.422080365801479 0  0.7788179348750389 0.9955343414928611 0  0.9062978492805438 0.1919636509126373 0  1.256007360640958 0.3160320559396114 0  1.09375 0 0  1.174986727221844 0.1594990293443933 0  2.34375 1.796875 0  2.318026474511116 1.589177949022232 0  2.34375 2.5 0  1.672742954892153 2.332882724550692 0  0.2683637361947215 1.874801596909639 0  2.174770749820102 0.5581009131310781 0  1.443279522965991 0.8870068372898454 0  0.3385416666666667 0.3571428571428572 0  0.78125 0 0  2.060421048269335 2.314363248763811 0  1.088078737088509 0.8967352118723447 0  1.087825368444708 1.454931510884769 0  2.018308232129541 0.8548495425854904 0  1.943987311736842 0.3246298523011434 0  1.71875 0 0  1.85337849796276 1.144833312386208 0  2.3486328125 2.1044921875 0  1.407588788651747 2.042968789119587 0  2.336309523809524 0.865366648092144 0  2.34375 0 0  2.5 0.15625 0  0.15625 2.5 0  0 2.34375 0  0.1638044648294291 1.242263417405867 0  0.356216654757926 1.032569427322806 0  0.3188217956111817 1.355736727000647 0  0.5924956460852111 0.36112522004736 0  0.6594216488965849 0.1603472116132387 0  1.841804599497131 1.72214349266521 0  0.15625 0 0  0 0.15625 0  2.115898634821499 1.894570904464496 0  0.7821877980253907 0.7129993435924866 0  1.003820447087786 0.4516053462784233 0  0.477562948779147 1.138333049293613 0  0.719493678605015 1.305655360135975 0  0.9772457618587566 2.020350128938537 0  0.8764738248887107 1.826219722709673 0  1.254787875123819 2.339010653832026 0  2.343597354852534 1.249982759769001 0  0.78125 2.5 0  0.46875 2.5 0  2.5 1.40625 0  1.09375 2.5 0  2.5 0.78125 0  2.5 1.09375 0  2.03125 0 0  2.5 0.46875 0  1.40625 0 0  0.46875 0 0  0 0.46875 0  0 1.40625 0  0 1.71875 0  0 2.03125 0  2.5 1.71875 0  2.5 2.03125 0  2.005424054645407 1.653223486966518 0  0.1538730573856537 1.559850281736677 0  2.33984375 2.33984375 0  1.166539506212474 1.922878979538754 0  0.3914885633949916 1.65887232812171 0  0.5795503163042564 1.766243562569382 0  0.399533125920212 1.946786875081388 0  0.7866324979014098 2.127719094551316 0  0.3654683023546834 0.1495701132219454 0  0.1527388747131078 0.6116379440619215 0  2.013737577140188 1.391056634712135 0  1.17635437372994 2.213329084238133 0  1.737118141866284 1.010577140843115 0  2.200707118087222 1.164723314085963 0  1.697018908736685 1.993548551451517 0  0.5387621649009668 0.6070503962352419 0  2.032805785855952 0.5330427622570983 0  1.082699501358059 1.667818725183932 0  1.503819781540653 0.5468420196858188 0  2.015409142866072 2.175941657590429 0  1.752057611265444 0.869642097111018 0  0.612251684107783 2.356045720700959 0  1.902817102342857 0.6607642211999982 0  2.159616561739693 0.7867739969338844 0  0.5120038350106624 2.197302352398502 0  1.888200216011548 1.919501662489862 0  1.495909909726654 2.16028358757309 0  0.489139876703609 1.443203008943564 0  0.8819175670410521 0.3301172743913011 0  1.882591144370812 0.8155965192707721 0  1.133979796994841 1.172526771862882 0  2.206217447916667 2.084147135416667 0  2.20361328125 2.36279296875 0  1.395746985657004 1.556054166359645 0  1.704383111516207 1.734750450338683 0  0.9575737847222222 2.36274223823052 0  1.035150984253136 0.1302833343179028 0  1.383966125325753 0.7651479963479179 0  1.64003252158672 0.6824316405528895 0  2.22550785055421 1.487078576356817 0  1.760964431499756 1.48495222505201 0  1.276460980673788 2.004207003584658 0  0.1341477688427096 1.828777507920502 0  1.542261434180652 1.155296658359034 0  1.334627911613854 0.9696897472490321 0  1.30794231473696 1.119420615785191 0  0.7028260459857245 0.4438906910721139 0  1.625757433094055 1.84268057552138 0  0.9818707849053143 1.165603626132254 0  2.0086489901463 1.243134585689553 0  1.934584460420609 2.374094051915812 0  1.798434376789567 2.38671361912528 0  1.206314791201715 1.382064292497919 0  0.6333752893366955 0.7023738550008095 0  0.7796219811205605 1.42573253164258 0  1.564399711917382 1.026040828857629 0  0.3385416666666666 0.4889012896825397 0  0.1041666666666667 0.390625 0  0.989112246382566 1.543537365516289 0  2.025724425454636 0.9846960595520872 0  0.6602885475034063 2.086117390485779 0  1.607130551925032 1.267198646640915 0  0.1317864544877056 0.8896173683400176 0  1.755387840017567 2.230364320056445 0  1.301540702984401 0.1216289692748247 0  1.433170657577442 0.3331052752740999 0  1.500459610550388 0.113513924782439 0  0.6494291520606965 1.029586599619295 0  1.010146149868299 0.794897284196169 0  0.3700844198238017 2.235390157870766 0  0.3360891767780704 2.36656279435396 0  1.876856241037701 1.437150669863757 0  1.778674102957329 1.245979347269706 0  0.5472829890977179 0.1005517127039925 0  0.4669074189005698 0.3416784232954367 0  1.472765289289269 1.850899166481903 0  1.555853593327178 1.608452097912802 0  0.6708955559113426 1.646561631116984 0  0.8164699620322933 0.5924479455478063 0  0.3167738989468366 1.758696809749795 0  0.2788007305565096 1.605499483471246 0  0.7821720982350511 0.181524936294752 0  1.376812251214195 2.313340247908297 0  1.785652202614777 0.5962261755537186 0  1.761467296310972 0.4679567244718574 0  2.2265625 1.8359375 0  2.3828125 1.9140625 0  0.5279531607054191 2.071552361614785 0  2.397573269551114 0.234375 0  2.383578172599618 0.3589298466020009 0  0.1024267304488855 2.265625 0  0.1164218274003825 2.141070153397999 0  0.2696857594953064 2.135405441512016 0  2.164961300137334 0.1375322943529536 0  2.137757548369486 0.2724194778647587 0  2.238873711826398 0.3626419179496562 0  0.1001414910226386 0.234375 0  0.2176339285714286 0.3478422619047619 0  0.2503620791333544 0.1061694061057066 0  2.336445461915368 0.1250451055247424 0  0.2154004640409726 2.3918124
[...]
<PointData  Scalars="f_16-0"> 
<DataArray  type="Float64"  Name="f_16-0"  format="ascii">8.6872121824508291e-08  1.3861791128489212e-05  5.2703563267547748e-10  5.9455992335097165e-10  7.5321553147544056e-06  1.4106245392777915e-08  1.3080453702399501e-07  6.7347490714895228e-04  7.4889420988360090e-04  9.9408405430001338e-04  1.9021942133084336e-05  1.0428124321794115e-07  3.8498825250228122e-05  2.6112836807102612e-10  2.4990414435652271e-07  2.1777117731760794e-08  4.6818372332944930e-08  2.0930434073196568e-06  8.7273017533412455e-05  3.8565573865462661e-04  2.5003787777206930e-05  9.7561473149491442e-04  5.7409402707714749e-05  1.6314741480684672e-03  1.1219174915714565e-06  3.1558097016561211e-04  6.8766156804926857e-06  3.5755862964826321e-06  1.3128219693986915e-07  2.7905645343563715e-08  6.4734353796176779e-06  7.4235374641761824e-05  1.0851630281609635e-03  3.1466505088322216e-06  2.3858694153452506e-04  6.1468868523981807e-04  6.6225197341542133e-07  1.2487880692739605e-03  2.2734118455062502e-04  1.0506168982489108e-06  1.4317051975853756e-05  1.7694191976403688e-06  1.9904100174045262e-05  9.2109929874041043e-04  5.8952670578654089e-09  6.6860124364069304e-09  7.2838273540397694e-04  1.6169369419813812e-03  1.7456908583563597e-05  1.9198024545781064e-06  1.4453365611896085e-05  7.9384800409087514e-08  1.3691340933125587e-08  1.4278150373217447e-09  9.2051162429475841e-04  2.6470270097528559e-04  9.0984313059835373e-08  3.0424103085258412e-10  2.5243732933281570e-06  1.1046272642995328e-07  3.4414910331851414e-08  5.5289958196156350e-05  5.4269629728171137e-05  3.3680085034973560e-06  3.5451903736606155e-04  7.2578534566853465e-05  4.3057172256291389e-04  8.1099381493337938e-08  1.8908774611125400e-06  4.5088657432234177e-06  2.6019054811347636e-04  1.7308665908358217e-05  1.3051955372206714e-04  1.8079678323733681e-03  1.2227994744178330e-04  1.0028709204349770e-03  2.0080768835226961e-07  5.5149100689412429e-08  4.9193960978719982e-07  4.3166616712214348e-06  1.9470954587020052e-03  3.8043605942405967e-05  2.0847160709406102e-05  3.7147602976244885e-05  2.1943637233953721e-07  1.9580035070879485e-09  4.4863199860706688e-09  2.0802535130314686e-05  1.1051201150902448e-05  1.0319427812108194e-06  5.6974727279220594e-08  5.3342532880441189e-09  5.2144221252221497e-06  4.6891446078475289e-08  6.8172719433397762e-07  2.0027121026238538e-04  4.6703877865097141e-04  1.9763867134694013e-07  1.1274152108797980e-05  5.5164569065767977e-07  9.0109504707646919e-05  2.1432171667502361e-05  2.0903123204343106e-05  3.4052509075270022e-04  1.7688653006978330e-06  1.5691961354335053e-03  9.7228200153068496e-04  1.1776421749164290e-03  3.4861268136135053e-06  8.5965761171565462e-08  1.8959698646511716e-04  8.2376110417394801e-04  8.7883569323625118e-04  1.0852713899818600e-03  1.1393013198464160e-03  2.6291570546724177e-04  7.5783314881182752e-04  1.7845872964562070e-06  3.3225012546284134e-06  1.0113765350890417e-04  6.1197574815660574e-04  5.5973688125361741e-07  2.0924231336672412e-08  9.3372529233552010e-04  4.2697333166938653e-05  2.0100000255898099e-09  1.6454409254513386e-03  1.2449019573575663e-07  9.5342701673081114e-07  1.5404696004976210e-06  1.8538065491493860e-04  7.8315325717270888e-05  2.8424799038116939e-04  2.3691094966676632e-06  2.7098468663748204e-07  1.8043025089257915e-04  1.2328066168521145e-04  1.0245966569620516e-03  4.8532760204556810e-04  1.4554236338278205e-03  1.6043847222116317e-05  8.3264847238337366e-06  1.1149798653489336e-05  9.8267355513807195e-06  1.5388290544918359e-07  2.9220154717263583e-07  2.0845825323321511e-09  5.3504518541597351e-07  4.3441645227757243e-05  1.2109890260176900e-08  1.0975057663748812e-04  1.9696729561496816e-03  1.6878110695123549e-05  8.8609665213273724e-08  7.2296914350386576e-04  6.0457609795112183e-04  4.3316369437932767e-07  1.2011447773260962e-07  7.8292263971638703e-07  1.6667279723530747e-05  4.0617369967960077e-08  1.4074030178229815e-05  7.0505540457095836e-09  2.8467511161960784e-09  4.2856518680285778e-10  8.4703612294310793e-08  4.0392990613830716e-07  6.6864792825465323e-04  9.1955470334749055e-04  5.2162275941959396e-04  3.7262906456299788e-04  2.3454179324304405e-05  1.9435514267198870e-05  1.1964252246207350e-05  1.8480142757024327e-04  1.0994794158116210e-06  1.1268357047582521e-03  5.5812127339273918e-05  8.6398878927134836e-04  7.4426093792954507e-04  1.5932019224964437e-05  6.6874031757527852e-05  7.6327200423800508e-07  1.0089887694644798e-07  9.0382235235063793e-08  8.4887910977323876e-08  2.6738155521729260e-08  1.0813380179438775e-07  4.6938007785336843e-10  5.1933596186797882e-09  6.7440561138938031e-08  2.4151735875135798e-10  3.9634519540025329e-06  2.0911640782496678e-05  9.9251375626614865e-04  4.7502084567139873e-04  1.1844353740167232e-04  1.1904414445430457e-05  3.2297355329889699e-08  1.2020704628791549e-08  6.8411712017283457e-06  2.6566287279133964e-04  8.3821384649175659e-09  4.1528924635228524e-05  1.7165343012969872e-04  8.4810442184009321e-05  2.5161719634577659e-05  5.0874857449482195e-06  1.2432842695402624e-04  1.0842079093207270e-03  7.3618352896010749e-06  2.9733155806372675e-06  2.4850010311050842e-05  3.9990153976222711e-07  1.0449159172736191e-05  1.7512970657937975e-03  5.9284198444960417e-08  2.2875409241926483e-04  4.9924552797765447e-06  4.0073684876256960e-07  8.1882230034058265e-06  4.2877811077017173e-07  3.4320437813278210e-07  4.3130877181907414e-08  2.5053767411937164e-06  5.7329196964057297e-06  4.2731100178330273e-06  4.0205468355480271e-04  3.5685399651251649e-05  1.2553699351449902e-06  9.7523988297874267e-04  1.7345268546913307e-07  1.8438085950777476e-08  2.8745836686979072e-04  4.1456333115340160e-05  4.1346642884684847e-07  1.2902153898255694e-05  6.9837006882754785e-05  4.5401512955217318e-06  8.9326525204732938e-07  6.3020937551364143e-05  2.2201723346361473e-05  6.1567402363743820e-05  1.8676168566541883e-04  3.1240967498128786e-04  5.5580072812227337e-04  4.0117660040212938e-04  3.7531366215487470e-05  1.1707938472845655e-03  5.8696386528565550e-06  1.1317974374199639e-07  1.8781929085374694e-07  6.7859399024421476e-04  1.6314482940673078e-03  5.2590497387946925e-04  1.0579741598630819e-04  2.1682009006210386e-03  1.3866332629721614e-03  4.0439926982053755e-04  1.0728448012992221e-06  6.9857056655741846e-06  1.5972851669008195e-04  9.4699328371902216e-04  1.1355479992914385e-06  6.4596452900874491e-06  4.2245887297839886e-06  2.6655888455421765e-06  1.2817595214499019e-03  6.6821250449497287e-04  1.6959180491044251e-06  3.4495237179986698e-07  2.5567284394607688e-05  4.5370313554416387e-05  2.2932056204092883e-05  7.9925980277325290e-04  5.7156037485269140e-05  1.3791359828695102e-04  1.6850120240431926e-04  6.1481034289861426e-04  9.6072897612586321e-05  2.2153001775316770e-04  1.9726215592102947e-05  9.5621922050774617e-07  7.6099525692752611e-07  6.1512987712882165e-07  5.2189930082398056e-07  6.5482056136767983e-08  8.5592287865034046e-06  9.2599190597333209e-10  1.0427865576973284e-09  1.1546169566587553e-06  4.3819825130379091e-06  4.5835086014768266e-06  1.5592253777818255e-08  1.9033975119069551e-08  6.3183725592438430e-09  4.3675069300498576e-03  2.7362325527666665e-03  1.0530743036202169e-04  2.3377578381053535e-09  2.5875988045054684e-07  2.4376018873500799e-06  2.0044756511568550e-04  7.2835051033783065e-07  1.5564655672680670e-04  1.4770953987695434e-05  1.8333002342616151e-05  1.7498703274344902e-05  1.2822852926383407e-04  1.2089871668434663e-03  2.4209239415137751e-05  1.4265031411732176e-07  1.2195594400277880e-09  1.7456740568250725e-09  1.2795288509040774e-08  1.0008565473911672e-03  3.4855727939972309e-05  3.7214320271238295e-05  3.3005875215094618e-05  1.3791503112035087e-06  2.4373599708537829e-04  2.9283266714188738e-07  1.3081414181098051e-03  1.5380281429827559e-04  1.0757164991423472e-04  1.9697758800883328e-08  1.5967087759345396e-05  1.6502680268350401e-07  7.0266921147543751e-06  7.7652228191175000e-04  9.3052302067395535e-09  9.9262640553548121e-04  7.1377402977608885e-04  2.9249254226263638e-06  2.6896246644432923e-06  8.8624932618709730e-08  2.8125318519318060e-07  3.9128422670093113e-04  5.7864846211598000e-04  7.3087576567170545e-08  4.7246235891441449e-07  1.3568477603302413e-03  1.2354329713470784e-06  1.0288832026275441e-05  1.1725526045148343e-06  4.3044855688751815e-07  8.5039102690816048e-08  8.4041159823796752e-06  3.8835998259889620e-04  2.5124225530146251e-07  9.0993722219933823e-04  1.1830122273858055e-03  1.9655541698376821e-03  1.5501922888227671e-03  1.3065830572259041e-06  1.8602168735987290e-04  7.4746550618248568e-04  5.0294040886051189e-08  2.3145942584802964e-08  2.7763571503782538e-07  2.3140498247139407e-07  1.9453221530968707e-09  1.0439363151259648e-05  2.2507432225100009e-06  1.1901056465448404e-05  2.2491343344161821e-08  2.4768837275675835e-06  3.8751430983793926e-06  9.3318117621880602e-06  3.3181548752611303e-05  5.5219537423055638e-04  3.7656625273523790e-04  6.0509424451155014e-04  1.9645911910998975e-07  1.6573337989853398e-04  1.1036209086456603e-03  5.2181052930664207e-04  2.5051888090825576e-07  1.4614115525360283e-03  8.1203073984907463e-04  1.4094809782147588e-03  1.0823999590561012e-03  3.1551672890274956e-07  7.7986721802768863e-04  1.1606591402851197e-04  3.8647076769416760e-04  2.6297593228821802e-05  6.6180683550882184e-06  3.6070602944119485e-08  3.7522485909477059e-04  1.0918580311478576e-05  8.7391445267778083e-05  1.7930454176593291e-06  9.6325577471206912e-04  1.3774084413244261e-03  4.2973600908722921e-07  3.5581657540444719e-04  1.2906826328711269e-06  3.2707306013292045e-07  7.6050680004063475e-04  1.0805675855684587e-03  8.9259548632356143e-04  4.2256723006074378e-06  5.1408453607507073e-07  4.0142047698571350e-04  1.6291245077182148e-06  3.8090266265689210e-07  2.6410862657822549e-04  1.5701033903031427e-03  1.1169949818295280e-09  8.1248350753718705e-05  1.5284774444089368e-04  3.6344962325477777e-04  9.7212815301089642e-09  1.2428719454975236e-04  2.6772515804124271e-04  4.6003168534430403e-05  1.8012038087393879e-03  1.0298849282415930e-03  9.2785814664405293e-08  8.6380137236520083e-04  3.2375559240538231e-05  1.0564672785720488e-05  1.8228317229829439e-06  5.2878393448998844e-04  7.0017931130322939e-04  4.7036624704077145e-05  3.9434045376520455e-05  8.2654897604415286e-06  2.5366574557934328e-06  1.7889459169280802e-05  5.2268056385365992e-04  2.0165643926300923e-07  8.2437347473065921e-07  5.1595343653833156e-08  7.6322863364288216e-06  1.5100500936648735e-05  4.2970399354941237e-06  1.0538364157029184e-05  1.7833957842992161e-05  4.3571616203071053e-09  1.1156888165744258e-04  9.8869582431008107e-04  3.5500355229640447e-07  5.7016307640132065e-09  1.5408464111760847e-03  7.9719484599670085e-05  2.6195322444779121e-05  1.7405418176693858e-05  6.4931006423819251e-09  2.2089257679666844e-04  8.2114541922595561e-04  2.1971331991952262e-06  6.3457984132700582e-08  2.8688780897405298e-08  9.1283149530087216e-08  4.0609810095030278e-04  1.4824653183016245e-03  7.6772911441582131e-04  9.7306930207707095e-04  1.0872397639117558e-04  4.2270273052271782e-06  6.2743171515652267e-04  3.0234132073125605e-08  4.1183727798797831e-08  4.9759834059627485e-04  1.1587998702145221e-06  1.0748232904420154e-03  2.4737775379492072e-06  1.1834674816166041e-03  1.2133316809223457e-07  1.2866545540877881e-04  2.6327950574491334e-04  1.0455674827964687e-05  6.5202866864642124e-06  5.8884982118570940e-06  1.1572773271335352e-04  6.7135913059901815e-05  2.7960931045707086e-04  4.4302652390336330e-05  7.8992199748950057e-08  2.0985230704996467e-07  5.9270313097835711e-08  9.7774637686613403e-07  8.1979487020569601e-04  9.9166977030391502e-08  4.9206036157575577e-04  1.2024371477621147e-05  9.6410429480798382e-04  4.4226035899952425e-06  3.4011291216311284e-04  3.9910793699232251e-06  2.8816468047276094e-06  8.7466564684355271e-05  7.7674897194085088e-10  2.5881772740165079e-07  1.2991356562386911e-05  1.2421618046817519e-06  3.3284484497897302e-05  4.3591554738603934e-07  1.1598183404675440e-07  1.0138597853721657e-04  7.8954240608830291e-04  2.1385650423070752e-05  2.2726325362406014e-10  6.6938319878811113e-10  2.5317098238158718e-07  1.4434389713624274e-05  5.6353501759684488e-05  7.6669780269448439e-05  8.6670932389440960e-06  5.2755266268977751e-08  2.5459139849324444e-05  8.3749155401807654e-06  1.4213933236361645e-04  9.8648790909163669e-04  5.2652163336299704e-06  6.9883866962969549e-05  1.8053403805268972e-05  1.9155428085300843e-07  2.3607780330675487e-07  1.1065338449861714e-05  2.4846997988952704e-05  5.8757019438338551e-04  6.7495927506742011e-09  2.2678888165981255e-06  4.0915235639893317e-05  3.2256118264575837e-05  1.3067852910403420e-05  1.6281591010040321e-05  1.1725234261492956e-05  1.3762933965662422e-06  3.2103421202930577e-08  8.3976895471756598e-06  3.4143497280312938e-10  3.3180355165230966e-07  1.2719902658528207e-07  1.4455215165173145e-06  5.4148523890692593e-08  1.8381001816928161e-07  7.8396826825600514e-08  4.9779331725404543e-10  5.1103536254873116e-06  2.3186538653304613e-08  8.1918554177124662e-04  8.4150105964630713e-04  4.8062176859103895e-05  1.3291532502197929e-06  1.8988810427647597e-07  8.9334186173915472e-05  1.4757363757302910e-08  6.4068400107045996e-08  1.8791157425387942e-04  1.9109491500329123e-04  2.5641916505278187e-09  2.5561968068587807e-06  1.1798302561568970e-04  5.9804492033423444e-05  8.5958302471032212e-06  9.4000075227111034e-07  6.2301658122321667e-09  2.0674808721059283e-03  2.4167015046342487e-03  1.6953485776056885e-03  6.6369026793624883e-05  8.9813277637164230e-10  5.4699151860340437e-05  9.4940358088882091e-04  7.8014364307364117e-10  5.5978048754943085e-07  2.5782639995959884e-06  1.7123868591569997e-06  6.5225627708925426e-06  4.8431712932376661e-09  2.0894685626124374e-04  4.5960298671271723e-07  2.4834014947654175e-08  1.0259218162344409e-03  2.9957539461107055e-04  1.8987747697811819e-04  2.9434034065114233e-07  2.7800641104107038e-09  8.8413690206602140e-05  1.9944621650845361e-05  3.6107756591912370e-05  1.2711194561429033e-05  1.6629871447856918e-08  6.5636854397133396e-04  9.1973398948690045e-04  5.8155043133626880e-04  5.7385004809024293e-05  6.1858762161721352e-04  5.2287773182800492e-04  3.2922718722417865e-05  5.9930802746954237e-07  2.9924779287074395e-06  6.9503657542273009e-04  5.2319213249771214e-04  1.8899106956811912e-04  1.9821342046552312e-05  4.1078372871976034e-05  9.4503438875775643e-04  2.7635542615174789e-04  1.3168255446565770e-08  2.7196762970461226e-09  5.3011735716699659e-04  5.6986743277553269e-04  3.8059839876863536e-04  4.1523880939767135e-04  2.7270804829154635e-03  2.3701194250567938e-05  1.1024242461880994e-07  1.3029451855714548e-05  4.8826590640864601e-07  5.0179072115578746e-09  9.9856062077510454e-08  2.9704907706162200e-05  1.6689107688849740e-07  5.1890074345077261e-04  2.4107385932111659e-06  4.3719559411943444e-05  1.5227497413459716e-06  7.1040474026599836e-07  1.3444338531001368e-05  2.1966254717451978e-05  1.0145974680297132e-06  5.5646582182742169e-06  2.0895148620523774e-08  2.4270212763839545e-03  5.2114448796470388e-06  4.9618794878208820e-10  1.2360460482734406e-03  1.4962370356575204e-03  2.1941199849178902e-05  5.2799250454186013e-06  2.4234502214905438e-04  1.9486585672419599e-05  3.4953233501907897e-08  3.4611610887729072e-05  9.8041465440493115e-09  5.1672749522066274e-08  1.4105786301813858e-05  6.5363773186536819e-07  1.8589115383999097e-03  1.4402290764590066e-04  3.9710264182426526e-06  1.0549504048000883e-05  5.8282645549591920e-05  1.1971656451685275e-06  7.2951283060638826e-07  1.5176512545682906e-04  1.0356657198602763e-03  9.2829869015651731e-05  1.2314063082965188e-05  1.5038850381001825e-07  3.4588408988210506e-08  5.1513801800535401e-06  6.7181511013612719e-04  2.6304228126662302e-07  7.7914300117645725e-08  9.2595328076669954e-06  3.5065085344485418e-09  9.2711547492396519e-08  1.2678485611606239e-08  1.7831242013419472e-07  8.9848171181005749e-08  1.2350397260694265e-07  1.8573665383945443e-04  9.8044877488037176e-08  3.6961401507120791e-08  4.2464683226581146e-07  1.2660955640244844e-06  8.8268184049269940e-09  1.9688950381178669e-08  3.1493695029346319e-08  8.7770268836613217e-04  7.5198089826897111e-04  5.8408076838922622e-04  1.2093575804492677e-07  9.8906162225794402e-04  1.5699025489010499e-05  1.3462009049860267e-07  2.2903061526040180e-05  8.1624913991978423e-08  1.6189647250686628e-05  9.9389754940659448e-07  3.4659444950718002e-10  2.0143061475107201e-05  2.9217429506581108e-06  7.7280253356644879e-04  9.7690479380006302e-04  6.4736459101702970e-08  3.4584487213045737e-09  1.0818888693527874e-09  1.0125696105197427e-09  3.5596547154782230e-04  1.1200855492460856e-07  9.9539057255118037e-04  2.8730071172581976e-08  9.0723235291218139e-09  2.6648243622192390e-10  5.9228339670530490e-07  3.4046733968901269e-06  2.7626264099030477e-04  1.8991350933692626e-07  1.0498794930057427e-05  3.0203490632214068e-07  1.2920564751510771e-03  1.7922343712865824e-03  1.7756921791372993e-03  4.8321753491124266e-07  2.3206290124130108e-05  1.4835596369402310e-03  1.0064637762635014e-03  1.3391387013532684e-05  9.1354124052279203e-04  7.3482639267085433e-05  8.0105703885639695e-06  3.7529956342953442e-04  2.7365756016569748e-04  2.0241117308927406e-04  5.6318616217144123e-04  1.0429396969757947e-03  1.2922609779180321e-03  1.5502414385422390e-07  3.8265541141781776e-05  2.9999769519668234e-05  8.3079510299493207e-07  1.6790054883247909e-03  6.9533648684110222e-08  2.9742849656353641e-04  1.2861466618373411e-05  1.0854547421135020e-03  1.0038492200657527e-03  3.6829881651793419e-04  1.8257968136248092e-05  5.5981562566136726e-06  1.3193101110995987e-03  1.2506142974491959e-03  1.5300356913067022e-07  4.5650964253744917e-08  1.3649563628308609e-03  8.4383269423804510e-08  1.4570099412025996e-08  4.8021179659718597e-04  5.0042815445839386e-05  6.4543535872470855e-04  6.4894447645539756e-05  8.0026923041884388e-04  6.1263878991885389e-07  1.4265107284173670e-04  1.0687468434823062e-04  4.8466024861689731e-06  1.5577605579543451e-05  1.0340242174789665e-05  4.6538360085803772e-06  4.4989701403799978e-06  3.9303638382703687e-06  4.7568334695110637e-04  1.3949406401264859e-05  7.8715160710462239e-05  1.2545958894671661e-04  4.4407735997147088e-05  3.3751013520579881e-05  5.9272239991251283e-07  1.5473521634845407e-04  7.8322654293219937e-07  3.4525439056183917e-07  8.8799026040087168e-06  2.2337984464951924e-05  2.3503140430827885e-04  1.9656545004909397e-04  1.1540132034003881e-04  7.8918083727497136e-04  1.2971811030585453e-08  1.6257384226262081e-06  1.5050233578703872e-06  2.0386754525420053e-06  3.0232451107037388e-06  1.3679195369804506e-06  8.0386367933856045e-07  1.8946803933012014e-04  3.5928678797748505e-06  7.5272582620949093e-07  2.1652986406155908e-09  1.0877627356075659e-06  1.5987408090075504e-04  4.7436724730959615e-04  7.0281869467425867e-04  1.6175792078099440e-04  7.6437789825845055e-08  1.1393853351709961e-03  5.7847673636776860e-06  4.3559559161912211e-07  1.4211238678691260e-03  1.8286500418081187e-07  6.3542819880389768e-07  5.2058115250018287e-07  3.4754632233827764e-08  4.8683224036603131e-08  1.6704667433999483e-07  4.0207110689002032e-04  2.3974161541492087e-04  4.7374709428239651e-04  5.9614295043469592e-04  1.3672481802877982e-05  5.8043381037479855e-06  5.5331981801080535e-05  2.2461628702466969e-09  1.8623199144403663e-05  3.0374429098569859e-04  4.1085930318729300e-04  5.0120150633898360e-04  9.6068051419433478e-07  1.9728032938777847e-07  1.1855427283794838e-07  1.4352640535544819e-07  1.9093827522505274e-07  4.0675354376590033e-09  4.0526749487448164e-08  5.4458191442738648e-06  1.9421628171247738e-06  1.7759616909128716e-08  3.1957177308695652e-08  2.0256306009454566e-05  8.6611446628093364e-07  1.9476978693647373e-06  3.8802444272668569e-06  7.1785657023936701e-07  3.5055998878597