<?xml version="1.0"?>
<VTKFile type="UnstructuredGrid"  version="0.1"  >
<UnstructuredGrid>
<Piece  NumberOfPoints="6486" NumberOfCells="12696">
<Points>
<DataArray  type="Float64"  NumberOfComponents="3"  format="ascii">0 2.5 0  0 0 0  2.5 0 0  2.5 2.5 0  1.25 0 0  2.5 1.25 0  1.25 2.5 0  0 1.25 0  1.25 1.25 0  0 0.625 0  0.625 0 0  0.625 2.5 0  0 1.875 0  2.5 0.625 0  1.875 0 0  2.5 1.875 0  1.875 2.5 0  1.770833333333333 0.7291666666666666 0  0.7291666666666666 1.770833333333333 0  0.9375 0.625 0  1.875 1.5625 0  0.642361111111111 1.163194444444444 0  1.341594827586207 1.883979885057471 0  0.46875 0.46875 0  2.03125 2.03125 0  0.3626104797979798 1.513178661616162 0  1.381740196078431 0.4564950980392157 0  0.9375 2.172619047619047 0  2.172619047619047 0.9375 0  2.096354166666667 0.4036458333333332 0  0.4036458333333333 2.096354166666667 0  1.684027777777778 1.163194444444444 0  0.3418803418803419 0.8693910256410255 0  1.642742622813391 2.162164207604464 0  1.275619849389031 0.8465650753054845 0  0.9136284722222221 1.434461805555556 0  1.732437511238546 0.3406962303960658 0  0.9714402568595876 1.029779313093998 0  1.52281746031746 1.485615079365079 0  2.1875 1.71875 0  1.06819722569879 0.2997236128493951 0  2.136114211309524 1.303478422619048 0  0.3125 0 0  0 0.3125 0  2.5 2.1875 0  2.1875 2.5 0  0.3200021620376328 1.192323085056694 0  0.6738456129277992 0.8304377375553881 0  1.757891808928991 1.861952730357003 0  1.5625 0 0  0.9375 0 0  0.3125 2.5 0  2.1875 0 0  2.5 0.9375 0  0 0.9375 0  0 1.5625 0  0.9375 2.5 0  2.5 0.3125 0  0 2.1875 0  1.5625 2.5 0  2.5 1.5625 0  0.7448220909826522 0.3003573636608841 0  1.027298850574712 1.871151477832512 0  1.331260495098891 2.197262878816185 0  1.207917681892289 1.582765010956622 0  0.4339993447432606 1.801186844743261 0  0.6337298768939392 1.443093039772727 0  2.049851190476191 0.6826636904761904 0  0.6584821428571428 2.219122023809524 0  1.89575676467455 0.9798457973793544 0  1.437570562095628 1.059380588255917 0  1.502090052505845 0.6987070896496241 0  0.2040860661083546 1.705323965099331 0  0.2083333333333333 0.46875 0  0.5070952039991439 0.2211150679997147 0  0.6916302856529919 0.5813591430410241 0  2.265625 1.953125 0  2.2265625 2.2265625 0  1.886424081252096 2.243391360417365 0  1.40625 0.202164758520858 0  0.2269345238095238 0.2269345238095238 0  1.152730869673694 0.5225850378741401 0  1.885631899587912 1.312095130148776 0  1.614808884009367 0.9049784971014416 0  1.890095442220658 0.5126535558463003 0  2.323168682795699 0.46875 0  2.268811725689575 0.2304742875213018 0  0.6002389442105756 1.967426444210576 0  0.1768313172043011 2.03125 0  0.2311882743104251 2.269525712478698 0  2.03125 0.176831317204301 0  2.280262553344767 0.6954945504579233 0  1.979219539285994 1.809922269642997 0  2.336309523809524 1.09375 0  1.09375 2.336309523809524 0  0.9314042474388009 1.662973812215543 0  0.1634067999087722 1.40625 0  2.337090640094896 1.40625 0  1.141616997467638 2.069311773587991 0  0.46875 2.338939559681489 0  1.542440307908715 1.734944797244472 0  1.556713687786879 1.956977865354753 0  0.8264238995344066 1.975424467820646 0  1.466326331454725 1.275271369760862 0  1.655675324257095 0.5444159974393489 0  0.3385416666666666 0.6479255698005697 0  0 0.78125 0  0.5236073939200119 0.984090461540625 0  2.091665741047893 1.519793517904215 0  1.71875 2.5 0  0.5356538886262603 1.623137930505009 0  0 1.09375 0  0.1932884281517095 1.015625 0  0.8569313582417669 1.2198915584249 0  0.8876981284879677 0.8329884081524883 0  1.115618488474214 0.7219586973356271 0  1.186950366204949 1.043465130075318 0  2.057459118787237 1.110823087309335 0  1.830651283878689 2.049810069572418 0  1.689107969301489 1.367247437031697 0  0.4921048768039656 1.298643370653124 0  0.8213975694444444 2.336309523809524 0  2.03125 2.5 0  1.049729400480002 1.283723261332814 0  1.308101375801673 0.6489479469700392 0  2.5 2.34375 0  0.4968777175037714 0.7562964879736076 0  1.40625 2.5 0  1.501347663534097 2.307027627307738 0  1.602813712048603 0.1926218191360736 0  0.8393082906308107 0.463778306132633 0  1.682663349152719 1.598471865581041 0  0.7774174680851571 1.560004941327907 0  1.554204170364662 0.3898593897892066 0  1.842184459051087 0.186443880058197 0  1.358107417651776 1.696381759610015 0  1.18859291992392 1.77598670078022 0  0.1875331222687418 0.7609599743339348 0  1.339536743965101 1.422080365801479 0  0.7788179348750389 0.9955343414928611 0  0.9062978492805438 0.1919636509126373 0  1.256007360640958 0.3160320559396114 0  1.09375 0 0  1.174986727221844 0.1594990293443933 0  2.34375 1.796875 0  2.318026474511116 1.589177949022232 0  2.34375 2.5 0  1.672742954892153 2.332882724550692 0  0.2683637361947215 1.874801596909639 0  2.174770749820102 0.5581009131310781 0  1.443279522965991 0.8870068372898454 0  0.3385416666666667 0.3571428571428572 0  0.78125 0 0  2.060421048269335 2.314363248763811 0  1.088078737088509 0.8967352118723447 0  1.087825368444708 1.454931510884769 0  2.018308232129541 0.8548495425854904 0  1.943987311736842 0.3246298523011434 0  1.71875 0 0  1.85337849796276 1.144833312386208 0  2.3486328125 2.1044921875 0  1.407588788651747 2.042968789119587 0  2.336309523809524 0.865366648092144 0  2.34375 0 0  2.5 0.15625 0  0.15625 2.5 0  0 2.34375 0  0.1638044648294291 1.242263417405867 0  0.356216654757926 1.032569427322806 0  0.3188217956111817 1.355736727000647 0  0.5924956460852111 0.36112522004736 0  0.6594216488965849 0.1603472116132387 0  1.841804599497131 1.72214349266521 0  0.15625 0 0  0 0.15625 0  2.115898634821499 1.894570904464496 0  0.7821877980253907 0.7129993435924866 0  1.003820447087786 0.4516053462784233 0  0.477562948779147 1.138333049293613 0  0.719493678605015 1.305655360135975 0  0.9772457618587566 2.020350128938537 0  0.8764738248887107 1.826219722709673 0  1.254787875123819 2.339010653832026 0  2.343597354852534 1.249982759769001 0  0.78125 2.5 0  0.46875 2.5 0  2.5 1.40625 0  1.09375 2.5 0  2.5 0.78125 0  2.5 1.09375 0  2.03125 0 0  2.5 0.46875 0  1.40625 0 0  0.46875 0 0  0 0.46875 0  0 1.40625 0  0 1.71875 0  0 2.03125 0  2.5 1.71875 0  2.5 2.03125 0  2.005424054645407 1.653223486966518 0  0.1538730573856537 1.559850281736677 0  2.33984375 2.33984375 0  1.166539506212474 1.922878979538754 0  0.3914885633949916 1.65887232812171 0  0.5795503163042564 1.766243562569382 0  0.399533125920212 1.946786875081388 0  0.7866324979014098 2.127719094551316 0  0.3654683023546834 0.1495701132219454 0  0.1527388747131078 0.6116379440619215 0  2.013737577140188 1.391056634712135 0  1.17635437372994 2.213329084238133 0  1.737118141866284 1.010577140843115 0  2.200707118087222 1.164723314085963 0  1.697018908736685 1.993548551451517 0  0.5387621649009668 0.6070503962352419 0  2.032805785855952 0.5330427622570983 0  1.082699501358059 1.667818725183932 0  1.503819781540653 0.5468420196858188 0  2.015409142866072 2.175941657590429 0  1.752057611265444 0.869642097111018 0  0.612251684107783 2.356045720700959 0  1.902817102342857 0.6607642211999982 0  2.159616561739693 0.7867739969338844 0  0.5120038350106624 2.197302352398502 0  1.888200216011548 1.919501662489862 0  1.495909909726654 2.16028358757309 0  0.489139876703609 1.443203008943564 0  0.8819175670410521 0.3301172743913011 0  1.882591144370812 0.8155965192707721 0  1.133979796994841 1.172526771862882 0  2.206217447916667 2.084147135416667 0  2.20361328125 2.36279296875 0  1.395746985657004 1.556054166359645 0  1.704383111516207 1.734750450338683 0  0.9575737847222222 2.36274223823052 0  1.035150984253136 0.1302833343179028 0  1.383966125325753 0.7651479963479179 0  1.64003252158672 0.6824316405528895 0  2.22550785055421 1.487078576356817 0  1.760964431499756 1.48495222505201 0  1.276460980673788 2.004207003584658 0  0.1341477688427096 1.828777507920502 0  1.542261434180652 1.155296658359034 0  1.334627911613854 0.9696897472490321 0  1.30794231473696 1.119420615785191 0  0.7028260459857245 0.4438906910721139 0  1.625757433094055 1.84268057552138 0  0.9818707849053143 1.165603626132254 0  2.0086489901463 1.243134585689553 0  1.934584460420609 2.374094051915812 0  1.798434376789567 2.38671361912528 0  1.206314791201715 1.382064292497919 0  0.6333752893366955 0.7023738550008095 0  0.7796219811205605 1.42573253164258 0  1.564399711917382 1.026040828857629 0  0.3385416666666666 0.4889012896825397 0  0.1041666666666667 0.390625 0  0.989112246382566 1.543537365516289 0  2.025724425454636 0.9846960595520872 0  0.6602885475034063 2.086117390485779 0  1.607130551925032 1.267198646640915 0  0.1317864544877056 0.8896173683400176 0  1.755387840017567 2.230364320056445 0  1.301540702984401 0.1216289692748247 0  1.433170657577442 0.3331052752740999 0  1.500459610550388 0.113513924782439 0  0.6494291520606965 1.029586599619295 0  1.010146149868299 0.794897284196169 0  0.3700844198238017 2.235390157870766 0  0.3360891767780704 2.36656279435396 0  1.876856241037701 1.437150669863757 0  1.778674102957329 1.245979347269706 0  0.5472829890977179 0.1005517127039925 0  0.4669074189005698 0.3416784232954367 0  1.472765289289269 1.850899166481903 0  1.555853593327178 1.608452097912802 0  0.6708955559113426 1.646561631116984 0  0.8164699620322933 0.5924479455478063 0  0.3167738989468366 1.758696809749795 0  0.2788007305565096 1.605499483471246 0  0.7821720982350511 0.181524936294752 0  1.376812251214195 2.313340247908297 0  1.785652202614777 0.5962261755537186 0  1.761467296310972 0.4679567244718574 0  2.2265625 1.8359375 0  2.3828125 1.9140625 0  0.5279531607054191 2.071552361614785 0  2.397573269551114 0.234375 0  2.383578172599618 0.3589298466020009 0  0.1024267304488855 2.265625 0  0.1164218274003825 2.141070153397999 0  0.2696857594953064 2.135405441512016 0  2.164961300137334 0.1375322943529536 0  2.137757548369486 0.2724194778647587 0  2.238873711826398 0.3626419179496562 0  0.1001414910226386 0.234375 0  0.2176339285714286 0.3478422619047619 0  0.2503620791333544 0.1061694061057066 0  2.336445461915368 0.1250451055247424 0  0.2154004640409726 2.3918124
[...]
<PointData  Scalars="f_49-0"> 
<DataArray  type="Float64"  Name="f_49-0"  format="ascii">-2.6655942266672641e-06  -4.7879753985568853e-03  2.8680579596482961e-07  2.6686799040079336e-06  -1.1023333342730923e-03  6.7556270593441124e-07  -3.9809434212433781e-06  -2.2405316988734787e-03  3.4453111734033322e-04  -4.0390531287127036e-03  -2.9918049882293671e-03  -3.6802047165879841e-06  -3.7925743828351888e-04  2.1907033415494833e-07  -1.4834801698746767e-05  8.5290192559926075e-06  4.4387571513465329e-06  -1.3727903507474901e-04  -7.4771257420452484e-04  -1.6236099846708718e-03  4.9623174366612280e-04  -2.4618102086391715e-03  -3.2576087999566967e-04  -6.7311856434117752e-04  3.1429259492050200e-04  -1.5087611865598821e-03  -8.9244918059762000e-04  -8.4188648780799335e-05  2.4367936214005769e-06  2.9450100363669797e-06  -1.2311322539232408e-04  -1.2524759271353482e-04  -3.3143366164937842e-03  2.2996031284093251e-05  -1.0000513595625901e-03  -1.6683972942319911e-03  -9.8543843683715807e-05  -3.2402797537383520e-04  8.7326047356557927e-04  1.1449831168658450e-04  -1.7350467595601585e-03  8.8011411702631227e-06  -3.7533191588100092e-03  -4.7924563519568582e-03  1.1356171750839534e-05  7.9819806378133981e-06  -2.3914162857422627e-03  -1.6597949777604215e-03  7.1796979280539690e-04  -2.6602485546736726e-04  -2.0328798962428118e-03  -2.4351599150794919e-06  2.1490163729854591e-06  3.0847109876562421e-07  -3.0323797508909514e-03  -1.2942739863337379e-03  -3.7506620428039529e-06  2.0086830339315591e-07  -5.2954415712181145e-05  -2.6089111458457025e-06  1.9730340636029917e-06  -2.6355641402619947e-03  -4.8194365440147618e-04  -5.8958518045557481e-05  -7.2828678891433867e-04  -6.7893358428705705e-04  -1.7087272543375161e-03  -4.6119891416199209e-07  -5.0821417494534156e-05  -4.9443893579436202e-05  -4.2715568928498036e-04  -5.9805825654755951e-04  -8.9598241671553700e-04  -4.1977242228122555e-03  -3.1272628852260327e-03  -9.0817265663440641e-04  9.4346803745605493e-05  6.2238517002947949e-05  8.3567051101288655e-05  -6.8515852691474030e-04  3.5576049418637238e-04  -1.5439555749441557e-03  4.3631468315147176e-05  -3.8442595135288566e-04  -2.3580061335546283e-05  1.0597908001252847e-06  1.5951277797505096e-06  -3.2045268780217067e-04  -1.6141531859293674e-04  -2.5971547780716043e-05  2.1583952508874435e-06  1.7235960091332213e-06  5.3636082701975438e-04  1.8551134699740306e-06  -2.0391986951573908e-05  -1.0246594743907468e-03  -1.8251233765874968e-03  4.2575528262986980e-06  -1.6499649758977661e-04  -1.5706419951500077e-05  5.1709145338242634e-04  9.1451713222711917e-05  -3.0747974578502514e-04  3.9756195672396513e-04  -2.8004134392036774e-04  -3.7087883276656674e-03  -3.5436737692068915e-03  -2.9142491290497369e-03  8.5734975550845336e-05  6.2106743343191766e-08  -1.1614323623215176e-03  -2.6233638251400805e-03  -2.8681839642695603e-03  -1.8960976709074203e-03  -3.4046459923964083e-04  -1.4055725508587268e-03  5.8925974189349980e-06  -1.7947741538963708e-06  3.3627744787816154e-04  3.5276319387797528e-04  -2.1045134493016034e-03  -2.0257424026245589e-05  9.5963150042862604e-06  -8.2727090253106742e-04  -1.1026441527347761e-03  6.5259330775374357e-06  -3.0110777782909426e-03  -3.6340595274038411e-06  -1.8131877820075099e-05  -2.3390872994659621e-04  -2.2440773892630364e-03  9.7037662802191410e-04  -1.3433027737622483e-03  -4.2251407035321238e-04  -2.3137801363699271e-05  -2.4509272442662186e-04  -6.6587345098534768e-04  -3.5975101689882790e-03  4.4257369018777968e-04  -1.7282790873150578e-03  -2.1648708527755856e-03  -1.2078558428336682e-03  -1.5824404319021343e-03  -1.4501847198795991e-03  3.5453956201073048e-05  1.8524100313545103e-05  5.8282090280730554e-06  1.8483221764337121e-06  -4.5646245000749219e-04  2.5793882330450963e-06  -7.0530572571257590e-04  -8.1218581560236894e-04  -2.4700378811542559e-03  4.9901449058908367e-05  -4.7527315626805792e-04  -1.0954086352986173e-03  -8.8201026681768931e-06  -6.0645150386713200e-06  -9.3668171719790485e-05  -5.6292187971537874e-05  4.6181253335242280e-05  -1.2991724909120912e-04  1.2829313256827414e-06  9.9845833858172668e-07  2.4738577646817732e-07  -2.3821279670687816e-06  -9.6051125964933070e-06  -2.2360924211576663e-03  -2.8847448529996105e-03  -1.9504745345791351e-03  -2.4130743364790285e-03  -2.8733229736297239e-03  8.0862352842266919e-04  -4.2549880308089269e-03  -5.3947693508510858e-03  2.6462123203796283e-04  -5.5762265816230398e-04  -1.9222714557037101e-03  -2.6018441815828055e-03  -2.0922109244069687e-03  -2.3577556966609289e-04  -5.9935528327029306e-04  -2.0174497703725055e-05  2.2909203757203493e-06  -3.5135372934557672e-06  -2.3885219165705025e-06  8.8264616969560040e-07  -3.7458567039750113e-06  2.9328773974345051e-07  4.8296358704387304e-07  2.1216312081806457e-06  2.1044793717615328e-07  -5.1876466560811247e-04  -3.3899088866747406e-03  -4.4227157336590613e-03  -1.8261831362603067e-03  -8.3380676657554195e-04  -1.7627276333479657e-04  5.1819076201378965e-06  1.1308332659634044e-05  3.3134170392291608e-04  -1.3316427829303333e-03  1.9708647155665131e-05  -3.8163399851503426e-04  -1.1250681410419773e-03  -7.5215525527615580e-04  -3.2736501213804858e-04  -1.1845641292218094e-04  -3.2498406918721758e-03  -4.0153790502344393e-03  5.8828374861666502e-05  -6.2672628333239360e-05  -1.7440193495442096e-04  3.5036750805972165e-06  3.3372397925722806e-04  -1.1379345576569781e-03  3.3486850836389792e-08  -9.9485599087824946e-04  -5.7496067632503158e-04  1.5043784755720948e-04  -1.6960368504684905e-04  -1.3867905647362691e-05  -3.4260750603346765e-05  2.4930889598590801e-06  -5.8372279050548317e-05  5.7520615214106394e-04  -4.6345958079828368e-05  -1.7043561139581452e-03  -2.2394956174174065e-03  -4.4294002875624401e-05  5.4783863985450858e-05  1.1689022370739881e-04  2.4932777748370546e-05  3.7491739797698085e-04  9.1465161933430199e-04  -1.4326999981160553e-05  -1.8200291721814259e-03  -9.1327620498829476e-04  -3.0819718220500712e-04  2.4176900608158240e-05  5.8478949496435742e-04  -2.3394139886653790e-04  -5.7566161584867196e-04  -1.5130640023390800e-04  -6.6705794244248970e-04  1.0057708261338382e-04  -2.1259670139109625e-03  5.2587716756688420e-04  -9.2790057189949310e-04  3.2296682702869803e-06  2.8156944228050911e-05  1.0151940983054205e-05  -2.0521533279997862e-04  -1.0537993059368364e-03  -1.7687820096092387e-03  -4.2133003790045906e-04  -2.7056499284314871e-03  -4.6081362878039227e-03  -1.3560219735760353e-03  -5.5396987824706544e-06  -1.4428777947213950e-04  1.4571810627949901e-04  -3.2439756117818375e-03  4.7907455193975931e-05  -9.6523546855719396e-04  -7.1124090304992523e-04  -4.0016846851566014e-04  -2.6041719176522981e-03  -7.9492297537558227e-04  -3.8723412266186171e-05  -1.0016419604213341e-05  2.1595937992030322e-04  -5.2340291465916795e-06  -3.1525998461034862e-03  -1.4922411287256075e-03  1.6571100627820703e-05  9.0456461441113358e-04  -1.0523936695652940e-03  -1.4133612454879701e-03  -7.7339504749912070e-04  -1.2529616753718773e-03  -2.5419589015358624e-03  -2.0842167045326916e-05  -1.1549075159440849e-04  -9.9230993957247722e-05  1.2408851971477540e-04  3.0933864623338919e-05  -1.6071662213805983e-04  4.4807197645090294e-07  6.8241287775697221e-07  -2.6561550978496950e-05  -8.7250455103708835e-05  -8.4243974630919562e-05  2.7957875780588104e-06  3.1844500699087395e-06  2.2373983404974060e-06  -4.4549956586512410e-03  -3.1684763337749117e-03  -2.9699108542035418e-03  8.0382027124348299e-07  -7.9841295691787963e-06  -5.9688127761668834e-05  1.4625270677856141e-03  -1.0639570746153797e-04  -1.6784764262442588e-03  -1.4694928961787590e-03  -1.1487370601493139e-03  -2.4914040832025891e-04  7.9330011250168910e-04  -2.2147852114336071e-03  -2.8660495994666505e-04  -4.8320882820490207e-06  7.9745201098601387e-07  7.7961472805641777e-07  2.3732629037293939e-05  -1.0466134050943210e-03  -4.4952855186679975e-04  -4.5589974870139787e-04  -5.1672620323617454e-04  6.7434778309684122e-05  6.1281636792642530e-04  -3.5447471708602654e-05  -3.1843436353816605e-03  -9.5768149444819869e-04  -7.2871456768418968e-04  2.7513817424526333e-06  -2.3096513223701174e-03  3.0607523752250987e-06  -1.0598737549462129e-04  -2.4990026726601521e-03  1.0530809309761623e-06  -3.7627350270346732e-03  -2.2116872545553303e-03  2.8096280670722619e-04  4.6149145162843774e-04  -3.6561264146225890e-06  -8.9296889752409781e-06  -1.6647105699393410e-03  -2.0469378233366926e-03  2.8140030521027042e-06  5.4684951439627089e-06  -1.3577601351183253e-03  -1.7760474954095574e-04  -2.8817805015315294e-04  2.1712353969552148e-04  -4.5103981787046828e-05  8.9512634109841813e-06  6.2188586398849192e-05  7.6923517408111441e-05  -9.2432673889601143e-06  -1.6697458648651689e-03  -3.6183455959968788e-03  -2.4057463623304845e-03  -3.9667829473423203e-03  -2.3837694800752176e-04  -1.0655820759875427e-03  -2.4230849828815034e-03  1.4189743848673729e-06  1.0817214833395643e-06  -8.2785187163578843e-06  -6.2692818452983084e-06  6.8455070527205283e-06  2.4076120209696835e-04  2.8684671713274933e-05  -8.4786201207247909e-04  1.8441024583675101e-05  -4.3390644017124067e-04  1.8712338107287777e-04  -1.7493195986809662e-04  -3.8604220218881995e-04  5.2455832020349539e-04  -1.6189601727428799e-03  -1.8081669747256875e-03  1.2709195002278209e-04  3.7836545802165449e-04  -9.8026981737223037e-05  -6.0060361304125893e-04  -6.2649246008553434e-06  -2.6596244535762848e-03  -8.2083273405863513e-04  -5.7709087031027116e-04  -1.9801047773287036e-04  -1.6386480689708234e-05  -1.9336399751629606e-03  -7.1587416642785525e-04  -1.1059888186478080e-03  -3.0277030232803436e-04  -1.2142852952690464e-04  2.1837954814786369e-06  -1.4343574937330718e-03  -1.1886351912034896e-03  -2.9096155320186049e-03  -5.1823311249570017e-05  -3.2024981069229091e-03  -5.9480013696115979e-04  1.8010312031580293e-04  7.4930520362145761e-04  -2.1626831490196367e-04  3.8895488438997554e-05  -1.3976377797685459e-03  -4.3186855468796623e-03  -2.9038631294869732e-03  -2.3010021430338385e-05  1.4106645920039851e-06  -9.3844879418403989e-05  3.5943467465722233e-06  -6.7650798744940882e-06  -1.3403151275167456e-03  -2.8431953654260538e-03  5.3457874522895789e-07  -1.4069977247408282e-03  -1.2125580542246312e-03  -1.0901060173401850e-03  2.5261829991891178e-06  -9.5953721207289917e-04  -1.3746142597274851e-03  1.7617640021707259e-04  -2.8514226141731387e-03  -2.6882465888733880e-03  -2.6960705844226418e-06  -6.9708751275627000e-05  -1.6828304909912117e-04  7.2727858402474701e-04  -1.4303153503133532e-05  -1.9252914892295666e-03  -2.3074450375775990e-03  -5.5786839092008709e-04  9.1156337197189523e-04  5.0505362188763394e-04  4.0632774569497338e-04  -2.6939474374347489e-03  -6.3875879090741943e-04  -8.4717472356522036e-06  -2.6763632065526438e-05  2.1537350883376583e-06  -1.1696808887954112e-03  -2.6412974744920284e-04  -6.5734110723225788e-04  -5.9256920165576252e-05  -2.6233584457147027e-03  1.6740465418263532e-06  -7.9869613213425254e-04  -6.4292214304150408e-05  -4.3891062278326909e-05  1.1779105183698123e-05  -1.8780424072019294e-03  9.2109984601679285e-04  -8.1836292487457991e-04  -2.0172796447089293e-03  1.5057463376468067e-06  -7.9258604019092369e-04  -2.6437635987879484e-03  -3.8011561428377528e-05  4.5233057797506099e-05  2.3123291923132716e-06  -3.4120676811295925e-06  -1.4096702718259214e-03  -3.4648254878851931e-03  -7.2227313398367870e-04  -3.5048011425924536e-03  2.4087271890930348e-05  -4.2371772830387098e-04  -2.1612644703689087e-03  3.0241950457008587e-06  2.9378104820794675e-06  -1.8949181814175433e-03  -3.3956693208672666e-05  -3.0650169627174356e-03  -4.1312614667777077e-04  -3.8689065815838606e-03  -3.4135787069227097e-06  -2.4671731445213099e-03  -1.9785274084935171e-03  -1.4633043358751807e-03  -9.7129593223791865e-04  -9.4287241365356245e-04  -4.8028604888594977e-04  -4.5229532264151991e-04  -3.4154424032805931e-04  -3.3641759610778285e-03  -2.4689785173847561e-06  6.8472025865017204e-05  5.5235609406261987e-05  -2.6938116246694564e-05  -2.4192600689303015e-03  -1.7471486622889986e-06  -1.8152944776261208e-03  -1.6773403609482288e-03  -2.2784278420008670e-03  -9.8106522504095152e-05  -1.5022105220858213e-03  -6.3702683501249985e-04  1.8109925366301106e-04  -5.2659261678830727e-04  2.9451141195161144e-07  9.4552183211492366e-06  -1.2545639319415857e-05  1.2662787643740638e-04  -3.7955638599549725e-04  2.0102239225123315e-04  -5.5618182586822222e-06  -2.5947464261787991e-04  2.1676777229778449e-04  -3.5111961161511229e-03  1.9618336112724948e-07  5.3468557128680028e-07  -9.0286934706968064e-06  -2.0350964920585299e-03  -5.5732186952527595e-04  -6.5276208472625822e-04  -1.1300278140152004e-04  2.4370204214385005e-05  -1.9251708626069508e-03  -1.1212809683884996e-04  -1.8970991366484610e-03  -2.8471624112785701e-03  -1.4125338954288693e-05  -6.0652775932014825e-04  -2.7116896597097125e-04  -5.8404967715217423e-06  -7.7738004881825738e-06  -1.6080203083484435e-03  -2.4003179306842470e-03  3.4128070778972918e-04  1.6123332893900400e-06  -6.4285457494847831e-05  -4.7201139216880117e-04  -1.2582426349760876e-04  -9.3145721065950903e-05  5.9622729041516572e-04  -1.7028998270985523e-04  2.2221643867946663e-04  2.4236656545589472e-06  -1.2223941476172352e-03  2.5562343136406933e-07  -8.6114991550366412e-07  -1.2479752931415619e-06  -2.0284331448095127e-05  1.7691850248471002e-05  6.6086631114554813e-05  1.3294191560898149e-05  2.8432174085352980e-07  -9.5692017773357132e-05  2.9507195558462849e-06  -2.6370490429353283e-03  -2.6570337752446858e-03  -3.1393684838841498e-04  5.3108506754635347e-06  1.6726764561824613e-06  2.5030141257768946e-05  2.4114589235833032e-05  6.6965903930361843e-05  -8.4078033347945711e-04  -6.2947695904355552e-04  1.1784617098932603e-06  -5.5300990095543152e-05  -7.9745852790786252e-04  -2.1533645414860466e-03  5.4023191877656607e-04  -2.7287123660953173e-05  1.7210361838308677e-06  -4.1738614051217026e-04  -2.8316271914999324e-03  -5.8588533559298381e-04  -5.1749950831619874e-04  4.3641145925416306e-07  7.8061966945564367e-04  -3.2400852133797767e-03  5.4329370731370034e-07  -1.5317524651795477e-05  -4.3007547973579783e-04  -2.0678341688361692e-04  -7.9897021115529312e-05  1.2620728062879827e-05  7.5780788294917340e-04  3.6960666842665205e-05  2.6573769393070482e-05  -3.4371656907147526e-03  -1.4255118660568221e-03  -5.5503874522470919e-04  3.5623143389264193e-06  6.4854469450092315e-07  -7.1420096051508935e-04  4.9222433684565790e-04  -3.0622000943940951e-03  -4.3989928813881586e-04  1.0038084373284741e-05  3.5938655287271761e-04  -2.9925981154208746e-03  -1.9589258148348001e-03  7.4701799371073565e-04  -2.1303333297731319e-03  -2.3269387875263822e-04  -1.7141359476123923e-03  1.0225309310059088e-05  -5.1567798039137834e-05  -1.3022106018264409e-03  -1.9430229731676931e-03  -2.5822101913061239e-03  -2.9923601692284471e-03  -2.7653907654491567e-03  -1.2084436290020848e-03  -2.6661121746114798e-03  9.5470713222358618e-07  4.1244649339881715e-07  -9.4770138854697125e-05  -1.4071015474795372e-03  -3.8373754592658404e-04  -1.7287651765128104e-03  -4.5551749540524728e-03  8.6683760964343477e-04  2.6084685599030969e-06  -1.8841225196551178e-03  1.6094677315071118e-04  1.8867418307869899e-06  7.9072714842268459e-05  -2.3723459620309672e-04  9.7202381861531323e-05  -9.4789158082856317e-04  3.6405094049663092e-04  -7.3216732066271430e-04  -3.4354082933671524e-05  -1.8767293757612211e-05  -4.3529777451669222e-03  -5.4342157914136682e-03  2.9792755996973884e-04  -8.2591294713026597e-04  3.5047733913731916e-05  5.6567241829544475e-04  -9.0158685239572522e-05  3.9061818136411326e-07  -5.9113107930676564e-04  -7.5072532331706186e-04  -2.5492007968982717e-04  1.9179195828428232e-04  -1.1779091604861732e-03  -1.7473026812921269e-03  7.7945367186213547e-06  -3.7280750120167678e-03  1.8974668573384288e-06  1.7396899707256092e-06  -1.9305890254668477e-03  2.5649654038404883e-06  -3.5147756176778996e-03  -9.6907550107563803e-04  -9.4032017339329269e-05  -2.0088976369841489e-04  -5.2533617838223840e-04  2.8706812750295700e-04  -9.4705776750841987e-05  9.5024096270973819e-04  -1.1843733468336979e-03  -2.9427818071484937e-04  1.4881738734590371e-04  2.7743923393645671e-06  1.2902860312583614e-06  -8.7880189365324601e-05  -2.2496210038543828e-03  -7.5790681591031163e-06  4.3692396928074274e-06  -1.2867722026452576e-03  6.5284271757802097e-06  -3.5933455787250805e-06  9.8184921424172575e-06  -5.4038937476746680e-06  -2.6473041450407886e-06  -3.5089900802354678e-06  -1.0606275420851539e-03  -3.6898715429774124e-06  3.6576085010360486e-06  -3.4393561167602330e-05  -1.5960479466259697e-04  5.6024863511910064e-07  7.5368213360836084e-07  1.2189150995867225e-06  -2.8085404352717492e-03  -2.4201150254408318e-03  -2.0409316602659476e-03  -3.7526493205383314e-06  -3.8497444539447919e-03  -2.2417153284638724e-03  -3.2490454794792881e-06  -2.7292315918330510e-04  -2.3048565503208106e-06  -4.0405868751675292e-03  -2.1452656077959783e-05  2.0422516642202041e-07  -3.2234087834907259e-03  -4.0771270946129745e-04  -5.0865790888423154e-03  -4.6192622871858227e-03  2.4884126362160377e-06  8.9286195492740914e-06  4.5958936082331543e-06  3.8237624897674588e-06  -1.5121350444697505e-03  -2.8777362349559389e-06  -4.2109383469083363e-03  7.2506623025919834e-06  1.2668437025406476e-05  2.0876755740023296e-07  -4.0758682013381647e-05  -6.3998773110664713e-05  -1.1556589283112549e-03  -7.4716899913750736e-06  -6.6063555721557394e-04  -9.2308529538984918e-06  -6.4228832322007188e-04  -2.2110198561751796e-03  -9.8752725319425699e-04  7.5882131309587826e-05  -3.4358341442257525e-03  -1.0736179353929565e-03  -4.0853674161803605e-03  -2.1136502706224446e-04  -2.1203004401129876e-03  -1.7286860217327503e-03  -1.5030084307509541e-04  -1.6508913331940262e-03  -1.3256046405949785e-03  -1.1693622846436420e-03  -2.0229909772686025e-03  -3.8147954638849909e-03  -4.1801616536747471e-03  2.9887252056902985e-06  2.2705579990820333e-04  -3.3960508610238042e-04  4.7919372047652499e-06  -1.9141077495995146e-03  2.0411939941264003e-06  -1.4621530161381571e-03  -1.8748133839982780e-04  -3.5594598407646629e-04  -3.1026361063918339e-03  5.4052564788499569e-04  -2.7193066600796528e-04  -7.1348725169095341e-04  -2.2823691682443571e-03  -1.4529686230625042e-03  -1.1933146545024944e-05  2.0414739464105649e-06  -2.9882737241516137e-03  2.2384774592565408e-06  2.4492207216731408e-06  -1.6289242064982737e-03  -2.0069261248705942e-04  -1.2257860192997671e-03  1.1423093098969198e-04  -1.3315733263105374e-03  4.4109006519838632e-05  -1.0247859980631316e-03  -8.3969620133172854e-04  -1.1821870551952114e-05  8.7607866180124686e-05  2.6417228406468663e-05  6.7239652464354624e-05  1.8567850984565316e-05  -9.6843718276778802e-05  -1.8280236360093715e-03  -1.7551448969707479e-04  -7.4676937470576586e-04  -1.0106199088684069e-03  -4.9764840133067209e-04  -4.0171012247885936e-04  -1.4303282416067405e-05  -4.9909781536398119e-04  -8.8661495067816058e-05  -4.3402071551607720e-05  -1.4623239891158136e-04  -2.6005552156415225e-04  -1.3013756893510422e-03  -1.1936902165334794e-03  -8.9880847008061144e-04  -1.3919423998737726e-04  2.8250046184271647e-06  -4.0805694064069150e-05  -3.5366671579028804e-05  -5.3025674715845838e-05  -6.4221967020722145e-05  -3.4528289790692364e-05  -7.9684725993627074e-06  7.8706674974388558e-04  -6.0146900192923876e-04  3.2914286268677834e-05  7.1965210929439317e-07  1.0188341404668187e-05  -8.7524259023297809e-04  -1.7625981056336982e-03  -2.3238351962405401e-03  4.0746395683703874e-04  1.1267584062824995e-06  -4.2729766649275816e-04  -8.9147782851270755e-04  1.2413425332570655e-05  -3.3369618012124447e-03  -1.3140441810935962e-05  2.3200146912988236e-04  1.3528853938619642e-04  2.5553974230366519e-05  2.1971885968730289e-06  -5.2967242289843063e-06  -1.6972923814893885e-03  1.5349768537955361e-05  3.8826570904005719e-04  -2.0885983980946784e-03  1.8548015517191885e-04  3.3671602066798152e-04  