<?xml version="1.0"?>
<VTKFile type="UnstructuredGrid"  version="0.1"  >
<UnstructuredGrid>
<Piece  NumberOfPoints="6486" NumberOfCells="12696">
<Points>
<DataArray  type="Float64"  NumberOfComponents="3"  format="ascii">0 2.5 0  0 0 0  2.5 0 0  2.5 2.5 0  1.25 0 0  2.5 1.25 0  1.25 2.5 0  0 1.25 0  1.25 1.25 0  0 0.625 0  0.625 0 0  0.625 2.5 0  0 1.875 0  2.5 0.625 0  1.875 0 0  2.5 1.875 0  1.875 2.5 0  1.770833333333333 0.7291666666666666 0  0.7291666666666666 1.770833333333333 0  0.9375 0.625 0  1.875 1.5625 0  0.642361111111111 1.163194444444444 0  1.341594827586207 1.883979885057471 0  0.46875 0.46875 0  2.03125 2.03125 0  0.3626104797979798 1.513178661616162 0  1.381740196078431 0.4564950980392157 0  0.9375 2.172619047619047 0  2.172619047619047 0.9375 0  2.096354166666667 0.4036458333333332 0  0.4036458333333333 2.096354166666667 0  1.684027777777778 1.163194444444444 0  0.3418803418803419 0.8693910256410255 0  1.642742622813391 2.162164207604464 0  1.275619849389031 0.8465650753054845 0  0.9136284722222221 1.434461805555556 0  1.732437511238546 0.3406962303960658 0  0.9714402568595876 1.029779313093998 0  1.52281746031746 1.485615079365079 0  2.1875 1.71875 0  1.06819722569879 0.2997236128493951 0  2.136114211309524 1.303478422619048 0  0.3125 0 0  0 0.3125 0  2.5 2.1875 0  2.1875 2.5 0  0.3200021620376328 1.192323085056694 0  0.6738456129277992 0.8304377375553881 0  1.757891808928991 1.861952730357003 0  1.5625 0 0  0.9375 0 0  0.3125 2.5 0  2.1875 0 0  2.5 0.9375 0  0 0.9375 0  0 1.5625 0  0.9375 2.5 0  2.5 0.3125 0  0 2.1875 0  1.5625 2.5 0  2.5 1.5625 0  0.7448220909826522 0.3003573636608841 0  1.027298850574712 1.871151477832512 0  1.331260495098891 2.197262878816185 0  1.207917681892289 1.582765010956622 0  0.4339993447432606 1.801186844743261 0  0.6337298768939392 1.443093039772727 0  2.049851190476191 0.6826636904761904 0  0.6584821428571428 2.219122023809524 0  1.89575676467455 0.9798457973793544 0  1.437570562095628 1.059380588255917 0  1.502090052505845 0.6987070896496241 0  0.2040860661083546 1.705323965099331 0  0.2083333333333333 0.46875 0  0.5070952039991439 0.2211150679997147 0  0.6916302856529919 0.5813591430410241 0  2.265625 1.953125 0  2.2265625 2.2265625 0  1.886424081252096 2.243391360417365 0  1.40625 0.202164758520858 0  0.2269345238095238 0.2269345238095238 0  1.152730869673694 0.5225850378741401 0  1.885631899587912 1.312095130148776 0  1.614808884009367 0.9049784971014416 0  1.890095442220658 0.5126535558463003 0  2.323168682795699 0.46875 0  2.268811725689575 0.2304742875213018 0  0.6002389442105756 1.967426444210576 0  0.1768313172043011 2.03125 0  0.2311882743104251 2.269525712478698 0  2.03125 0.176831317204301 0  2.280262553344767 0.6954945504579233 0  1.979219539285994 1.809922269642997 0  2.336309523809524 1.09375 0  1.09375 2.336309523809524 0  0.9314042474388009 1.662973812215543 0  0.1634067999087722 1.40625 0  2.337090640094896 1.40625 0  1.141616997467638 2.069311773587991 0  0.46875 2.338939559681489 0  1.542440307908715 1.734944797244472 0  1.556713687786879 1.956977865354753 0  0.8264238995344066 1.975424467820646 0  1.466326331454725 1.275271369760862 0  1.655675324257095 0.5444159974393489 0  0.3385416666666666 0.6479255698005697 0  0 0.78125 0  0.5236073939200119 0.984090461540625 0  2.091665741047893 1.519793517904215 0  1.71875 2.5 0  0.5356538886262603 1.623137930505009 0  0 1.09375 0  0.1932884281517095 1.015625 0  0.8569313582417669 1.2198915584249 0  0.8876981284879677 0.8329884081524883 0  1.115618488474214 0.7219586973356271 0  1.186950366204949 1.043465130075318 0  2.057459118787237 1.110823087309335 0  1.830651283878689 2.049810069572418 0  1.689107969301489 1.367247437031697 0  0.4921048768039656 1.298643370653124 0  0.8213975694444444 2.336309523809524 0  2.03125 2.5 0  1.049729400480002 1.283723261332814 0  1.308101375801673 0.6489479469700392 0  2.5 2.34375 0  0.4968777175037714 0.7562964879736076 0  1.40625 2.5 0  1.501347663534097 2.307027627307738 0  1.602813712048603 0.1926218191360736 0  0.8393082906308107 0.463778306132633 0  1.682663349152719 1.598471865581041 0  0.7774174680851571 1.560004941327907 0  1.554204170364662 0.3898593897892066 0  1.842184459051087 0.186443880058197 0  1.358107417651776 1.696381759610015 0  1.18859291992392 1.77598670078022 0  0.1875331222687418 0.7609599743339348 0  1.339536743965101 1.422080365801479 0  0.7788179348750389 0.9955343414928611 0  0.9062978492805438 0.1919636509126373 0  1.256007360640958 0.3160320559396114 0  1.09375 0 0  1.174986727221844 0.1594990293443933 0  2.34375 1.796875 0  2.318026474511116 1.589177949022232 0  2.34375 2.5 0  1.672742954892153 2.332882724550692 0  0.2683637361947215 1.874801596909639 0  2.174770749820102 0.5581009131310781 0  1.443279522965991 0.8870068372898454 0  0.3385416666666667 0.3571428571428572 0  0.78125 0 0  2.060421048269335 2.314363248763811 0  1.088078737088509 0.8967352118723447 0  1.087825368444708 1.454931510884769 0  2.018308232129541 0.8548495425854904 0  1.943987311736842 0.3246298523011434 0  1.71875 0 0  1.85337849796276 1.144833312386208 0  2.3486328125 2.1044921875 0  1.407588788651747 2.042968789119587 0  2.336309523809524 0.865366648092144 0  2.34375 0 0  2.5 0.15625 0  0.15625 2.5 0  0 2.34375 0  0.1638044648294291 1.242263417405867 0  0.356216654757926 1.032569427322806 0  0.3188217956111817 1.355736727000647 0  0.5924956460852111 0.36112522004736 0  0.6594216488965849 0.1603472116132387 0  1.841804599497131 1.72214349266521 0  0.15625 0 0  0 0.15625 0  2.115898634821499 1.894570904464496 0  0.7821877980253907 0.7129993435924866 0  1.003820447087786 0.4516053462784233 0  0.477562948779147 1.138333049293613 0  0.719493678605015 1.305655360135975 0  0.9772457618587566 2.020350128938537 0  0.8764738248887107 1.826219722709673 0  1.254787875123819 2.339010653832026 0  2.343597354852534 1.249982759769001 0  0.78125 2.5 0  0.46875 2.5 0  2.5 1.40625 0  1.09375 2.5 0  2.5 0.78125 0  2.5 1.09375 0  2.03125 0 0  2.5 0.46875 0  1.40625 0 0  0.46875 0 0  0 0.46875 0  0 1.40625 0  0 1.71875 0  0 2.03125 0  2.5 1.71875 0  2.5 2.03125 0  2.005424054645407 1.653223486966518 0  0.1538730573856537 1.559850281736677 0  2.33984375 2.33984375 0  1.166539506212474 1.922878979538754 0  0.3914885633949916 1.65887232812171 0  0.5795503163042564 1.766243562569382 0  0.399533125920212 1.946786875081388 0  0.7866324979014098 2.127719094551316 0  0.3654683023546834 0.1495701132219454 0  0.1527388747131078 0.6116379440619215 0  2.013737577140188 1.391056634712135 0  1.17635437372994 2.213329084238133 0  1.737118141866284 1.010577140843115 0  2.200707118087222 1.164723314085963 0  1.697018908736685 1.993548551451517 0  0.5387621649009668 0.6070503962352419 0  2.032805785855952 0.5330427622570983 0  1.082699501358059 1.667818725183932 0  1.503819781540653 0.5468420196858188 0  2.015409142866072 2.175941657590429 0  1.752057611265444 0.869642097111018 0  0.612251684107783 2.356045720700959 0  1.902817102342857 0.6607642211999982 0  2.159616561739693 0.7867739969338844 0  0.5120038350106624 2.197302352398502 0  1.888200216011548 1.919501662489862 0  1.495909909726654 2.16028358757309 0  0.489139876703609 1.443203008943564 0  0.8819175670410521 0.3301172743913011 0  1.882591144370812 0.8155965192707721 0  1.133979796994841 1.172526771862882 0  2.206217447916667 2.084147135416667 0  2.20361328125 2.36279296875 0  1.395746985657004 1.556054166359645 0  1.704383111516207 1.734750450338683 0  0.9575737847222222 2.36274223823052 0  1.035150984253136 0.1302833343179028 0  1.383966125325753 0.7651479963479179 0  1.64003252158672 0.6824316405528895 0  2.22550785055421 1.487078576356817 0  1.760964431499756 1.48495222505201 0  1.276460980673788 2.004207003584658 0  0.1341477688427096 1.828777507920502 0  1.542261434180652 1.155296658359034 0  1.334627911613854 0.9696897472490321 0  1.30794231473696 1.119420615785191 0  0.7028260459857245 0.4438906910721139 0  1.625757433094055 1.84268057552138 0  0.9818707849053143 1.165603626132254 0  2.0086489901463 1.243134585689553 0  1.934584460420609 2.374094051915812 0  1.798434376789567 2.38671361912528 0  1.206314791201715 1.382064292497919 0  0.6333752893366955 0.7023738550008095 0  0.7796219811205605 1.42573253164258 0  1.564399711917382 1.026040828857629 0  0.3385416666666666 0.4889012896825397 0  0.1041666666666667 0.390625 0  0.989112246382566 1.543537365516289 0  2.025724425454636 0.9846960595520872 0  0.6602885475034063 2.086117390485779 0  1.607130551925032 1.267198646640915 0  0.1317864544877056 0.8896173683400176 0  1.755387840017567 2.230364320056445 0  1.301540702984401 0.1216289692748247 0  1.433170657577442 0.3331052752740999 0  1.500459610550388 0.113513924782439 0  0.6494291520606965 1.029586599619295 0  1.010146149868299 0.794897284196169 0  0.3700844198238017 2.235390157870766 0  0.3360891767780704 2.36656279435396 0  1.876856241037701 1.437150669863757 0  1.778674102957329 1.245979347269706 0  0.5472829890977179 0.1005517127039925 0  0.4669074189005698 0.3416784232954367 0  1.472765289289269 1.850899166481903 0  1.555853593327178 1.608452097912802 0  0.6708955559113426 1.646561631116984 0  0.8164699620322933 0.5924479455478063 0  0.3167738989468366 1.758696809749795 0  0.2788007305565096 1.605499483471246 0  0.7821720982350511 0.181524936294752 0  1.376812251214195 2.313340247908297 0  1.785652202614777 0.5962261755537186 0  1.761467296310972 0.4679567244718574 0  2.2265625 1.8359375 0  2.3828125 1.9140625 0  0.5279531607054191 2.071552361614785 0  2.397573269551114 0.234375 0  2.383578172599618 0.3589298466020009 0  0.1024267304488855 2.265625 0  0.1164218274003825 2.141070153397999 0  0.2696857594953064 2.135405441512016 0  2.164961300137334 0.1375322943529536 0  2.137757548369486 0.2724194778647587 0  2.238873711826398 0.3626419179496562 0  0.1001414910226386 0.234375 0  0.2176339285714286 0.3478422619047619 0  0.2503620791333544 0.1061694061057066 0  2.336445461915368 0.1250451055247424 0  0.2154004640409726 2.3918124
[...]
<PointData  Scalars="f_49-0"> 
<DataArray  type="Float64"  Name="f_49-0"  format="ascii">-5.5415804440438590e-07  -4.4922889779588776e-03  6.5827108887378959e-08  3.5810469483367904e-07  -8.2334384211623062e-04  2.0174482250985557e-07  -7.9488514358653750e-07  -1.9394963646932589e-03  6.3382977914833237e-04  -3.7433757335886076e-03  -2.6961235402030142e-03  -7.7229724148252486e-07  -2.0319638120565152e-04  4.8612105555261962e-08  1.6599832686592602e-06  2.2569419245727310e-06  1.3563058542983467e-06  -5.0423220111202744e-05  -4.7073278021802633e-04  -1.3281540669577733e-03  4.2700272864026374e-04  -2.1650398397923382e-03  -1.3082518608474499e-04  -3.7743370830113079e-04  1.3584831476330357e-04  -1.1869080379558227e-03  -6.2888249023635107e-04  -2.9849710055836368e-05  2.5867468566776720e-06  2.5210063255345088e-06  -4.9579172137844541e-05  1.8500924079904369e-05  -3.0187533113548892e-03  2.5501130134348042e-05  -7.1472818735855898e-04  -1.3545323162186334e-03  -3.1886832924530060e-05  -2.8769095196327548e-05  1.0458835153447032e-03  5.7123138149733449e-05  -1.4410912522701972e-03  9.1208597685100036e-06  -3.4576329251646272e-03  -4.4967704061482467e-03  2.2201606930008275e-06  1.4789047162762038e-06  -2.0927064471657629e-03  -1.3641841791378181e-03  5.1474607631445764e-04  -1.2904453785413683e-04  -1.7376484112494783e-03  -4.8870095899658081e-07  9.6323184600540370e-07  7.9833844325476951e-08  -2.7367692032768160e-03  -9.7735398380821787e-04  -7.5608832326216045e-07  4.3691587610898805e-08  -1.8217660021726572e-05  -3.8035284614349060e-07  6.5938921945498582e-07  -2.3398970799652424e-03  -2.6777632955039268e-04  -1.8645668898736580e-05  -4.1558176809377699e-04  -4.1944673363175156e-04  -1.3928941985067065e-03  3.0604346392496371e-06  -1.6790575174819123e-05  -8.6155200129225858e-06  -1.6730673534932344e-04  -3.7282423422860418e-04  -6.0429905271522171e-04  -3.9020398649885777e-03  -2.8315780372788219e-03  -6.1249923308229627e-04  3.2925370780363207e-05  1.6307130433944751e-05  3.2426257411945394e-05  -4.4805686897008806e-04  6.5144685431688879e-04  -1.2516470275654591e-03  8.0434007597613466e-05  -2.0393437088017706e-04  -1.2860244118502370e-06  3.4937857825028908e-07  6.1522167085986962e-07  -1.6004490334423156e-04  -6.9882409860241753e-05  -7.6952535063784987e-06  3.3947643965038500e-06  7.3740015610250195e-07  3.1736785976612872e-04  8.1778683108131814e-07  -5.4363487247044554e-06  -7.1639862087945422e-04  -1.5127305081095873e-03  2.0458980830486439e-06  -6.8724844029017658e-05  -4.2493923522313464e-06  5.9179318172071927e-04  1.2837778732762440e-04  -1.4900546970179857e-04  6.3638528480357737e-04  -1.3791088542587459e-04  -3.4131165279897031e-03  -3.2480437124908132e-03  -2.6187184515615407e-03  6.0188502893797040e-05  4.1541362837229138e-07  -8.4202148005852232e-04  -2.3268204905854588e-03  -2.5723818999974801e-03  -1.5977611805392850e-03  -4.4951668777636193e-05  -1.1118082056248617e-03  2.9728586639099188e-04  4.8433873531896874e-06  1.7958829593732182e-04  4.6079963595009225e-04  -1.8001613926174761e-03  -5.5495901590366737e-06  2.1947783267675780e-06  -5.2577594239886524e-04  -8.2351383411702740e-04  1.0495876003536373e-06  -2.7154336801901687e-03  -6.9915096260553825e-07  -3.7266050371330528e-06  -1.0836581151704705e-04  -1.9484531130289867e-03  9.4873537950421021e-04  -1.0225764933710032e-03  -2.3900635302582845e-04  -6.7540262848808011e-07  1.2113086068195906e-05  -3.9135626274398687e-04  -3.3018691073635567e-03  7.1733365098895947e-04  -1.4327282497720558e-03  -1.8694567553463771e-03  -9.2403064585717693e-04  -1.2899058641259230e-03  -1.1594990113773353e-03  1.3012184668154637e-05  8.6096274644379942e-06  9.2069096683859584e-07  3.4829766871982546e-06  -2.5377377196859067e-04  1.4858587342594407e-06  -4.5235427228895042e-04  -5.1649983198447384e-04  -2.1744243221584248e-03  1.3911477425978623e-05  -1.8112077291023671e-04  -7.8074807059379508e-04  2.7225574066047509e-06  3.0472146719233796e-06  -2.9021339237125850e-05  1.0215924740909935e-06  1.2125163510566425e-05  -3.8914739371813686e-05  5.0516566691761961e-07  3.1747730441145475e-07  5.4069127563365561e-08  -4.8099749421907570e-07  -2.4693348248679575e-06  -1.9350988869602844e-03  -2.5890685881481208e-03  -1.6421002441432523e-03  -2.1173921478987953e-03  -2.5776431681626272e-03  6.0371267033589330e-04  -3.9593016225105346e-03  -5.0990829559179451e-03  1.1970003554281139e-04  -2.6198619961004016e-04  -1.6272564509559229e-03  -2.3054214713653085e-03  -1.7894620116551811e-03  -1.0722389023479097e-04  -3.5434514963947426e-04  -5.3361322836950243e-06  1.0021670699462023e-06  -7.1287371299659315e-07  -4.6647948231275898e-07  2.7562824422698849e-07  -7.3688756829002048e-07  7.1698767959737802e-08  1.4011443867302171e-07  3.3688284867200822e-06  4.5652358739663414e-08  -3.1367858274691015e-04  -3.0942232555451208e-03  -4.1270314844154528e-03  -1.5141893280271894e-03  -5.5028934652376718e-04  -7.8272252016235272e-05  1.6171432129779315e-06  2.5534504486492550e-06  2.2410069350629053e-04  -1.0127677586561567e-03  3.9399483788283704e-06  -1.9456254870017832e-04  -8.0807463709483835e-04  -4.7449655901434282e-04  -1.6616090011948377e-04  -4.5753361354499472e-05  -2.9541545922884375e-03  -3.7197031964336285e-03  5.8890955956567141e-05  -2.0924118183681538e-05  -6.3706464373014152e-05  2.6484834057035921e-06  2.3909372268051803e-04  -8.4225668398580993e-04  3.3847012131448372e-06  -6.7975368810823940e-04  -3.5511644300385543e-04  5.4190366935128774e-05  -6.7512826993940152e-05  -3.6083373397612517e-06  -5.2968893602171864e-06  2.1806195903133874e-06  -2.0096991842604811e-05  3.2992444095235866e-04  -7.9412261421242484e-06  -1.3876306527098299e-03  -1.9439773463648291e-03  -7.6110961241618915e-06  3.4907542248343763e-04  3.7118861449769882e-05  5.4390726137825761e-06  6.1169544462705598e-04  7.7939977438537674e-04  -3.5752653984460962e-06  -1.5254403064468658e-03  -6.4474001273080955e-04  -1.5522415079868431e-04  1.4608462147884091e-05  6.0054974569830489e-04  -1.0131948095662069e-04  -3.4089029049176519e-04  6.6332692475108763e-05  -3.8816555047270593e-04  3.8087742672466651e-04  -1.8302952705994528e-03  4.8132834819890043e-04  -6.3115696973311446e-04  1.7487726375451277e-05  8.7487492577131730e-06  4.3227686279195535e-06  9.3872806395856962e-05  -7.5813605224887338e-04  -1.4556380909906453e-03  -2.0786938903794271e-04  -2.4099656586062381e-03  -4.3124508058414047e-03  -1.0323730216012050e-03  3.4366206999569665e-06  -5.9118851093637141e-05  3.2533906873462331e-04  -2.9483928533507262e-03  2.5855211415575160e-05  -6.9695165660445832e-04  -4.7149969580438016e-04  -2.2282704583821507e-04  -2.3085621929126638e-03  -4.9990089453011942e-04  -1.2427796698487148e-05  -2.4796782276613774e-06  2.2073163030163459e-04  8.4386816000941745e-05  -2.8569155622583720e-03  -1.1965555915700700e-03  1.4308881962281494e-04  9.8911631542635448e-04  -7.3977602788968865e-04  -1.1177401326759292e-03  -4.9812060795840346e-04  -9.3370966184875138e-04  -2.2463184227553825e-03  -5.3032660006433969e-06  -4.0866426153060029e-05  -3.2745843897293407e-05  5.2718973149607310e-05  9.4655797635532599e-06  -6.8494379257275269e-05  1.1756635173964095e-07  1.9584343025859525e-07  -8.0626013592807754e-06  -3.3069467881738410e-05  -3.1669022105630827e-05  1.5623229268358854e-06  1.9623891263789352e-06  9.6477136219910753e-07  -4.1593093100703851e-03  -2.8727903888328440e-03  -2.6742244873911871e-03  2.4353863708827380e-07  -1.9570245005056160e-06  -1.9694413139827292e-05  1.7582134722834372e-03  -3.5216314672872458e-05  -1.3840669031062707e-03  -1.1785610707225498e-03  -8.6770519166240988e-04  -1.1864345850351153e-04  8.8416761664551356e-04  -1.9184326291076382e-03  -1.4234999476308419e-04  3.5251334322210630e-06  2.4346136471953893e-07  2.4917150667101348e-07  5.0572031915423593e-06  -7.5093176429116338e-04  -2.4201226563956712e-04  -2.5154695735534952e-04  -3.0750621040823004e-04  3.8359855046830773e-05  8.1046951383212254e-04  -4.8543834096979669e-06  -2.8887653229312774e-03  -6.5586689563066182e-04  -4.5768597039356812e-04  1.8997496807631767e-06  -2.0141089794262121e-03  2.1702515366268181e-06  -3.9165637093315165e-05  -2.2015203934337754e-03  3.8436114934494561e-07  -3.4670744227916399e-03  -1.9105717330062219e-03  1.5954864958960503e-04  2.3552902728238132e-04  3.3194727308610841e-06  -2.0529106943338592e-06  -1.3470433479008926e-03  -1.7414035222863334e-03  1.0987358222382565e-06  3.4215591210520051e-06  -1.0619894196179699e-03  -7.4148826673021197e-05  -1.4055468279304702e-04  9.5508667946825787e-05  -8.1354386642833314e-06  3.4254619944446775e-06  6.9193718544919812e-05  3.3647913373637922e-04  -2.2213276197488827e-06  -1.3669719717271656e-03  -3.3227001760854822e-03  -2.1100662108790463e-03  -3.6711038576964995e-03  -1.1168519386975491e-04  -7.5930826839553083e-04  -2.1249283211973152e-03  5.1224547933170272e-07  3.7903779610657049e-07  -1.8580201477676860e-06  -1.4931601818524790e-06  1.0984293029417138e-06  1.9242151842158368e-04  2.2566648246533767e-05  -5.8830462970756018e-04  4.1912161473317422e-06  -2.4702712231872506e-04  1.1219701622970758e-04  -7.3438253217116380e-05  -2.0056401081844130e-04  8.0129059725863466e-04  -1.3014998843005211e-03  -1.5124809316851269e-03  4.0773961485108244e-05  5.5770226326436949e-04  1.9681598172842862e-04  -3.0986554685115582e-04  -1.2029717792281654e-06  -2.3640813410497710e-03  -5.2530491007517037e-04  -2.8149079273437436e-04  9.7230855830411641e-05  6.7184686145481341e-07  -1.6283605813620914e-03  -4.4350922382583474e-04  -7.8307094710733480e-04  -1.4760194733544186e-04  -4.6972871472284293e-05  1.1634274596633008e-06  -1.1126672318341436e-03  -9.0533230895162829e-04  -2.6139344186768059e-03  -1.6787936072418096e-05  -2.9069268016054823e-03  -2.9932033820592523e-04  6.7692055629935420e-05  9.8395248426295565e-04  -9.7849189668874659e-05  1.6832376891833851e-05  -1.0885359549730690e-03  -4.0230022736478469e-03  -2.6081412845242271e-03  1.2432371655883191e-06  3.6322390103395763e-06  1.9266968335362097e-04  5.9187708531775246e-06  -7.6987645278697445e-07  -1.0176294156381822e-03  -2.5475917075624571e-03  1.4335338122846562e-07  -1.1162860244733589e-03  -9.2465827428459229e-04  -7.9777994779736520e-04  1.2632390040238968e-06  -6.5431571502789024e-04  -1.0516158276343353e-03  2.3275668032913741e-04  -2.5557536182853292e-03  -2.3924302086195267e-03  -5.4407160905341489e-07  2.2618792434308925e-04  -3.4326846860193316e-05  4.7653009047426162e-04  1.2971384240873474e-06  -1.6160695994979326e-03  -2.0073779518179867e-03  -3.2123598926285806e-04  7.7757961111902716e-04  3.1922453865192797e-04  2.0312362944941510e-04  -2.3982867724509694e-03  -3.2877427904811068e-04  -1.9711280151781443e-06  -7.7594981219515571e-06  3.2075514498964958e-06  -8.8840515370732669e-04  -1.2372032238332450e-04  -4.2444187132902657e-04  1.6274077896078822e-06  -2.3277057303027157e-03  6.8299199588777686e-07  -5.2189673152403654e-04  2.3032279797437604e-04  -7.8278440022372514e-06  2.1635555879989782e-06  -1.5824914600825984e-03  9.0208816434546519e-04  -5.6252980992031320e-04  -1.7220904836133901e-03  5.6608756025405340e-07  -4.8706632700177882e-04  -2.3472834640228439e-03  -9.9153192203538374e-06  1.3121138083842475e-05  1.3648717626696999e-06  -6.6590906127153949e-07  -1.1145363386542107e-03  -3.1691743332626118e-03  -4.1685172470660152e-04  -3.2091766304695028e-03  2.0650613519282603e-04  -2.3750648401315661e-04  -1.8587314325215671e-03  1.9737332382106862e-06  2.8532816305266973e-06  -1.5845839688074961e-03  -1.0021789564274557e-05  -2.7694837945620239e-03  -2.3181382505612510e-04  -3.5732374248651747e-03  3.5421884331778384e-06  -2.1715178673914724e-03  -1.6829744566730542e-03  -1.1722031919554107e-03  -7.0175943321651782e-04  -6.7682163600831153e-04  -2.2523070933475693e-04  -2.3088852140433003e-04  -5.5456545990710264e-05  -3.0684904394207078e-03  -4.8596333846658479e-07  2.2366367482201403e-05  1.4448226786401491e-05  -7.9427758413325082e-06  -2.1213665543975448e-03  -1.1010995220592751e-07  -1.5196388461526237e-03  -1.3835821361800349e-03  -1.9803903692578151e-03  -3.7273669821520617e-05  -1.1819582765847990e-03  -4.0749533815387644e-04  1.0963038162137502e-04  -3.0244446506506704e-04  7.3483111923078244e-08  4.6360974246338343e-06  2.2484306704781489e-05  5.8021829950069057e-05  -2.0148120697012988e-04  7.4205138870311828e-05  2.8243013340547770e-06  -7.2714304056257625e-05  5.0718305264093461e-04  -3.2155101920998590e-03  4.1904955720824627e-08  1.4463402265522363e-07  -2.0757454935792884e-06  -1.7398747377462926e-03  -3.2644023712868219e-04  -4.0168599233915642e-04  -3.6314612801059915e-05  6.4246578427981073e-06  -1.6302187169277098e-03  -3.9579345502977982e-05  -1.6018885063414667e-03  -2.5515261675517504e-03  6.1590735976819054e-06  -3.6604106935134156e-04  -1.3091113885003097e-04  -1.3174939788490913e-06  -1.8664482525902212e-06  -1.3151158688828213e-03  -2.1047149584290038e-03  6.2070857854648132e-04  6.7603993741051441e-07  -2.1989814611068195e-05  -2.5848957190331576e-04  -2.5796182150047949e-05  -2.3747214919325881e-05  4.5934828319805381e-04  -7.4442918206001117e-05  1.0991237452160123e-04  2.6495171785131826e-06  -9.3889925900414299e-04  5.9908348993861054e-08  3.5464962185181770e-06  3.0540070576237771e-06  3.9775044213052083e-07  5.5302010908831593e-06  2.3638508702841640e-05  4.6858391598845179e-06  6.4700094039965278e-08  -3.5002929600099861e-05  2.1789931883615692e-06  -2.3404433555688437e-03  -2.3606453302739460e-03  -1.4761162798057080e-04  8.7614651026875728e-06  1.5101193156691165e-06  1.5998439884663148e-04  5.4797093111493639e-06  1.8199557606382007e-05  -5.6622409038328857e-04  -3.7054014790234249e-04  3.9967168513554322e-07  -1.8907083610533722e-05  -5.1624226554299827e-04  -1.8579005300422423e-03  3.6194731790063713e-04  -7.7156460771123433e-06  7.0956275199456812e-07  -1.2169988926621108e-04  -2.5359417366495763e-03  -2.9019965081796711e-04  -2.8966000179756228e-04  1.0965350848546128e-07  7.4554893145812315e-04  -2.9444976857519092e-03  1.5147866903791459e-07  -4.1938318266217582e-06  -2.4384157524040445e-04  -9.1128144409519633e-05  -2.2393837715759378e-05  2.3145068159019913e-06  9.2114781073272724e-04  1.5966876263010969e-05  6.7342364041273541e-06  -3.1415538510262005e-03  -1.1026454089571160e-03  -2.6980449325533041e-04  2.1015047267859362e-06  2.0124711865964192e-07  -4.4479097980013548e-04  3.8844456658564260e-04  -2.7665168361753149e-03  -2.4809998220753324e-04  2.4583941119114053e-06  6.4625951346560385e-04  -2.6969717469607093e-03  -1.6512614400452002e-03  7.0797116427076068e-04  -1.8267710948097890e-03  5.2060163305628433e-05  -1.4201471233801742e-03  6.2207813459378207e-06  -1.0129600490657571e-05  -1.0065243133480896e-03  -1.6344298255081457e-03  -2.2865358386745223e-03  -2.6966775261309029e-03  -2.4697153392044748e-03  -9.1275996953705965e-04  -2.3704277574582194e-03  3.3168471447225900e-07  1.1659492721606938e-07  2.0020419724303031e-04  -1.0889133609951844e-03  -1.0671135678154437e-04  -1.4130003002707575e-03  -4.2594888533606500e-03  6.5973805785579859e-04  1.2798176294827079e-06  -1.5891957381242471e-03  6.4643773514101062e-05  7.8465028193981179e-07  2.3625861912952717e-05  -9.1306277553305286e-05  3.0300158324936763e-05  -6.5374955631577916e-04  1.9216583539208851e-04  -4.8486897991536251e-04  -9.9542457222407809e-06  -4.9236641371798825e-06  -4.0572913309043805e-03  -5.1385293738167668e-03  1.2837410184888756e-04  -5.6959500256295343e-04  8.0153956614410092e-06  8.6135880691402215e-04  -3.4855277358074229e-05  9.7633448346393788e-08  -2.9546819704689276e-04  -4.5507674537959307e-04  -1.1650111393414311e-04  1.3342867482722424e-04  -8.6093715759937028e-04  -1.4531809396381723e-03  2.0991560175030043e-06  -3.4323887607678421e-03  8.1761498818649947e-07  3.1909085870520554e-06  -1.6356436023765861e-03  3.5033345917550276e-06  -3.2190962363683332e-03  -6.6869176781829951e-04  -3.4320027388920948e-05  -8.7132545678618927e-05  -2.9884407461255749e-04  1.2501127704065584e-04  -2.9728697608699337e-05  1.0577372051323651e-03  -8.8439835637407413e-04  -7.2614162514225608e-05  1.3601039453666546e-04  1.2681605144472750e-06  4.5699739310089300e-07  -3.3153744618555460e-05  -1.9488502914173031e-03  -1.6279869829317639e-06  1.7018192769081237e-06  -1.0005184440629953e-03  1.0936724426812307e-06  -7.2635188418184971e-07  2.0379636523495778e-06  -1.2536478551628402e-06  -5.4615439906346799e-07  -6.8077916776555021e-07  -7.5461390160849360e-04  -7.6043569591584680e-07  1.2233593597743908e-06  -4.0988553264192980e-06  -6.3777874070834005e-05  1.6422812807274559e-07  2.2500431339344553e-07  3.9857535420746557e-07  -2.5126195313328252e-03  -2.1218440139212703e-03  -1.7351604881967646e-03  -7.4039087473407959e-07  -3.5540760532543911e-03  -1.9462174376271143e-03  3.5985886347038528e-06  -1.3416297912705532e-04  -4.6394432852433715e-07  -3.7449004917383660e-03  -6.3511029265968379e-06  4.3308133214657352e-08  -2.9277239755318408e-03  -2.2803768012845193e-04  -4.7908927911347286e-03  -4.3235767861809753e-03  9.8131082766196940e-07  1.5816740311812201e-06  6.8143723562195027e-07  5.5071963552027331e-07  -1.1940797663369290e-03  -5.0235256660697083e-07  -3.9152567639844675e-03  2.1418981722040400e-06  2.7245361535673356e-06  4.5910085874945379e-08  -6.6162612203418583e-06  -2.1249482082075966e-05  -8.3487269261122040e-04  -1.7240063888155651e-06  -4.2511213402800956e-04  -2.1284710841181803e-06  -3.4660821934880836e-04  -1.9153547978893889e-03  -6.9184420890552217e-04  3.3002689701605554e-05  -3.1401484173379651e-03  -7.7807997562915113e-04  -3.7896891146679428e-03  -9.6511272953240005e-05  -1.8202671685173758e-03  -1.4343708624969746e-03  -6.0913055569471880e-05  -1.3327361223798690e-03  -1.0075641714863306e-03  -8.5430642614878010e-04  -1.7168147677381980e-03  -3.5191308338990940e-03  -3.8844803368964743e-03  1.7699043600461677e-06  2.6466866297037111e-04  -1.7077266643037277e-04  4.1832654505608113e-06  -1.6184736170370862e-03  7.8897778017610393e-07  -1.1408749330476615e-03  -8.0786195562141007e-05  -5.9977093834984296e-05  -2.8070892365995399e-03  7.9311208133214827e-04  -1.2800185204728316e-04  -4.7134042940962423e-04  -1.9866045240248291e-03  -1.1565043679668350e-03  2.0884831511338011e-06  9.7300544489334055e-07  -2.6927244828758522e-03  2.5699705773982044e-06  1.3617257696989763e-06  -1.3114280645975898e-03  -6.3376523774595904e-05  -9.3021792394020766e-04  2.0712225208642136e-04  -1.0358961169748579e-03  2.1921581657789935e-05  -7.1304707233862030e-04  -5.4890132586649565e-04  1.3398235810547354e-05  1.0315571341068458e-04  4.4607010914804056e-05  5.5199954612864469e-05  2.3487431010019756e-05  -3.6304066605129700e-05  -1.5157923235652891e-03  -7.3073392426618026e-05  -4.7119517953093904e-04  -7.3217316251455501e-04  -2.8201440221410184e-04  -2.1536504928577763e-04  -3.2380498632458419e-06  -2.5891975965897053e-04  -2.7224252798498523e-05  -8.6316152521400428e-06  -6.1680848228961237e-05  -1.2070445269009284e-04  -9.7871164674885559e-04  -8.7291952746594483e-04  -6.0306318197003554e-04  1.5425960375073153e-04  1.5502087667577292e-06  -1.2412404924618703e-05  -1.0504154283800342e-05  -1.7827934909879426e-05  -2.2584655333666377e-05  -1.0744963736513810e-05  3.1702405029193339e-07  9.4068870353826190e-04  -3.7893861230043604e-04  1.8283354111439005e-05  2.2670403366162665e-07  7.3803227643532740e-06  -5.7883884641810924e-04  -1.4488270956272476e-03  -2.0243529777450092e-03  5.6915195816266341e-04  3.6360647152542367e-06  -1.3170336620013675e-04  -6.3052957757965371e-04  6.9460082658229551e-06  -3.0413358879909039e-03  1.9044122523205146e-06  9.0559658160959826e-05  5.1373884510499374e-05  7.0036158459119190e-06  2.6140762577558751e-06  -1.2052119664765309e-06  -1.3804370758410118e-03  2.6541249578551662e-04  6.5455524777223092e-04  -1.7838794750873594e-03  1.6216648372397829e-04  2.0385979638875556e-04  -3.3599219272742193e-04  3.94792182451