<?xml version="1.0"?>
<VTKFile type="UnstructuredGrid"  version="0.1"  >
<UnstructuredGrid>
<Piece  NumberOfPoints="6486" NumberOfCells="12696">
<Points>
<DataArray  type="Float64"  NumberOfComponents="3"  format="ascii">0 2.5 0  0 0 0  2.5 0 0  2.5 2.5 0  1.25 0 0  2.5 1.25 0  1.25 2.5 0  0 1.25 0  1.25 1.25 0  0 0.625 0  0.625 0 0  0.625 2.5 0  0 1.875 0  2.5 0.625 0  1.875 0 0  2.5 1.875 0  1.875 2.5 0  1.770833333333333 0.7291666666666666 0  0.7291666666666666 1.770833333333333 0  0.9375 0.625 0  1.875 1.5625 0  0.642361111111111 1.163194444444444 0  1.341594827586207 1.883979885057471 0  0.46875 0.46875 0  2.03125 2.03125 0  0.3626104797979798 1.513178661616162 0  1.381740196078431 0.4564950980392157 0  0.9375 2.172619047619047 0  2.172619047619047 0.9375 0  2.096354166666667 0.4036458333333332 0  0.4036458333333333 2.096354166666667 0  1.684027777777778 1.163194444444444 0  0.3418803418803419 0.8693910256410255 0  1.642742622813391 2.162164207604464 0  1.275619849389031 0.8465650753054845 0  0.9136284722222221 1.434461805555556 0  1.732437511238546 0.3406962303960658 0  0.9714402568595876 1.029779313093998 0  1.52281746031746 1.485615079365079 0  2.1875 1.71875 0  1.06819722569879 0.2997236128493951 0  2.136114211309524 1.303478422619048 0  0.3125 0 0  0 0.3125 0  2.5 2.1875 0  2.1875 2.5 0  0.3200021620376328 1.192323085056694 0  0.6738456129277992 0.8304377375553881 0  1.757891808928991 1.861952730357003 0  1.5625 0 0  0.9375 0 0  0.3125 2.5 0  2.1875 0 0  2.5 0.9375 0  0 0.9375 0  0 1.5625 0  0.9375 2.5 0  2.5 0.3125 0  0 2.1875 0  1.5625 2.5 0  2.5 1.5625 0  0.7448220909826522 0.3003573636608841 0  1.027298850574712 1.871151477832512 0  1.331260495098891 2.197262878816185 0  1.207917681892289 1.582765010956622 0  0.4339993447432606 1.801186844743261 0  0.6337298768939392 1.443093039772727 0  2.049851190476191 0.6826636904761904 0  0.6584821428571428 2.219122023809524 0  1.89575676467455 0.9798457973793544 0  1.437570562095628 1.059380588255917 0  1.502090052505845 0.6987070896496241 0  0.2040860661083546 1.705323965099331 0  0.2083333333333333 0.46875 0  0.5070952039991439 0.2211150679997147 0  0.6916302856529919 0.5813591430410241 0  2.265625 1.953125 0  2.2265625 2.2265625 0  1.886424081252096 2.243391360417365 0  1.40625 0.202164758520858 0  0.2269345238095238 0.2269345238095238 0  1.152730869673694 0.5225850378741401 0  1.885631899587912 1.312095130148776 0  1.614808884009367 0.9049784971014416 0  1.890095442220658 0.5126535558463003 0  2.323168682795699 0.46875 0  2.268811725689575 0.2304742875213018 0  0.6002389442105756 1.967426444210576 0  0.1768313172043011 2.03125 0  0.2311882743104251 2.269525712478698 0  2.03125 0.176831317204301 0  2.280262553344767 0.6954945504579233 0  1.979219539285994 1.809922269642997 0  2.336309523809524 1.09375 0  1.09375 2.336309523809524 0  0.9314042474388009 1.662973812215543 0  0.1634067999087722 1.40625 0  2.337090640094896 1.40625 0  1.141616997467638 2.069311773587991 0  0.46875 2.338939559681489 0  1.542440307908715 1.734944797244472 0  1.556713687786879 1.956977865354753 0  0.8264238995344066 1.975424467820646 0  1.466326331454725 1.275271369760862 0  1.655675324257095 0.5444159974393489 0  0.3385416666666666 0.6479255698005697 0  0 0.78125 0  0.5236073939200119 0.984090461540625 0  2.091665741047893 1.519793517904215 0  1.71875 2.5 0  0.5356538886262603 1.623137930505009 0  0 1.09375 0  0.1932884281517095 1.015625 0  0.8569313582417669 1.2198915584249 0  0.8876981284879677 0.8329884081524883 0  1.115618488474214 0.7219586973356271 0  1.186950366204949 1.043465130075318 0  2.057459118787237 1.110823087309335 0  1.830651283878689 2.049810069572418 0  1.689107969301489 1.367247437031697 0  0.4921048768039656 1.298643370653124 0  0.8213975694444444 2.336309523809524 0  2.03125 2.5 0  1.049729400480002 1.283723261332814 0  1.308101375801673 0.6489479469700392 0  2.5 2.34375 0  0.4968777175037714 0.7562964879736076 0  1.40625 2.5 0  1.501347663534097 2.307027627307738 0  1.602813712048603 0.1926218191360736 0  0.8393082906308107 0.463778306132633 0  1.682663349152719 1.598471865581041 0  0.7774174680851571 1.560004941327907 0  1.554204170364662 0.3898593897892066 0  1.842184459051087 0.186443880058197 0  1.358107417651776 1.696381759610015 0  1.18859291992392 1.77598670078022 0  0.1875331222687418 0.7609599743339348 0  1.339536743965101 1.422080365801479 0  0.7788179348750389 0.9955343414928611 0  0.9062978492805438 0.1919636509126373 0  1.256007360640958 0.3160320559396114 0  1.09375 0 0  1.174986727221844 0.1594990293443933 0  2.34375 1.796875 0  2.318026474511116 1.589177949022232 0  2.34375 2.5 0  1.672742954892153 2.332882724550692 0  0.2683637361947215 1.874801596909639 0  2.174770749820102 0.5581009131310781 0  1.443279522965991 0.8870068372898454 0  0.3385416666666667 0.3571428571428572 0  0.78125 0 0  2.060421048269335 2.314363248763811 0  1.088078737088509 0.8967352118723447 0  1.087825368444708 1.454931510884769 0  2.018308232129541 0.8548495425854904 0  1.943987311736842 0.3246298523011434 0  1.71875 0 0  1.85337849796276 1.144833312386208 0  2.3486328125 2.1044921875 0  1.407588788651747 2.042968789119587 0  2.336309523809524 0.865366648092144 0  2.34375 0 0  2.5 0.15625 0  0.15625 2.5 0  0 2.34375 0  0.1638044648294291 1.242263417405867 0  0.356216654757926 1.032569427322806 0  0.3188217956111817 1.355736727000647 0  0.5924956460852111 0.36112522004736 0  0.6594216488965849 0.1603472116132387 0  1.841804599497131 1.72214349266521 0  0.15625 0 0  0 0.15625 0  2.115898634821499 1.894570904464496 0  0.7821877980253907 0.7129993435924866 0  1.003820447087786 0.4516053462784233 0  0.477562948779147 1.138333049293613 0  0.719493678605015 1.305655360135975 0  0.9772457618587566 2.020350128938537 0  0.8764738248887107 1.826219722709673 0  1.254787875123819 2.339010653832026 0  2.343597354852534 1.249982759769001 0  0.78125 2.5 0  0.46875 2.5 0  2.5 1.40625 0  1.09375 2.5 0  2.5 0.78125 0  2.5 1.09375 0  2.03125 0 0  2.5 0.46875 0  1.40625 0 0  0.46875 0 0  0 0.46875 0  0 1.40625 0  0 1.71875 0  0 2.03125 0  2.5 1.71875 0  2.5 2.03125 0  2.005424054645407 1.653223486966518 0  0.1538730573856537 1.559850281736677 0  2.33984375 2.33984375 0  1.166539506212474 1.922878979538754 0  0.3914885633949916 1.65887232812171 0  0.5795503163042564 1.766243562569382 0  0.399533125920212 1.946786875081388 0  0.7866324979014098 2.127719094551316 0  0.3654683023546834 0.1495701132219454 0  0.1527388747131078 0.6116379440619215 0  2.013737577140188 1.391056634712135 0  1.17635437372994 2.213329084238133 0  1.737118141866284 1.010577140843115 0  2.200707118087222 1.164723314085963 0  1.697018908736685 1.993548551451517 0  0.5387621649009668 0.6070503962352419 0  2.032805785855952 0.5330427622570983 0  1.082699501358059 1.667818725183932 0  1.503819781540653 0.5468420196858188 0  2.015409142866072 2.175941657590429 0  1.752057611265444 0.869642097111018 0  0.612251684107783 2.356045720700959 0  1.902817102342857 0.6607642211999982 0  2.159616561739693 0.7867739969338844 0  0.5120038350106624 2.197302352398502 0  1.888200216011548 1.919501662489862 0  1.495909909726654 2.16028358757309 0  0.489139876703609 1.443203008943564 0  0.8819175670410521 0.3301172743913011 0  1.882591144370812 0.8155965192707721 0  1.133979796994841 1.172526771862882 0  2.206217447916667 2.084147135416667 0  2.20361328125 2.36279296875 0  1.395746985657004 1.556054166359645 0  1.704383111516207 1.734750450338683 0  0.9575737847222222 2.36274223823052 0  1.035150984253136 0.1302833343179028 0  1.383966125325753 0.7651479963479179 0  1.64003252158672 0.6824316405528895 0  2.22550785055421 1.487078576356817 0  1.760964431499756 1.48495222505201 0  1.276460980673788 2.004207003584658 0  0.1341477688427096 1.828777507920502 0  1.542261434180652 1.155296658359034 0  1.334627911613854 0.9696897472490321 0  1.30794231473696 1.119420615785191 0  0.7028260459857245 0.4438906910721139 0  1.625757433094055 1.84268057552138 0  0.9818707849053143 1.165603626132254 0  2.0086489901463 1.243134585689553 0  1.934584460420609 2.374094051915812 0  1.798434376789567 2.38671361912528 0  1.206314791201715 1.382064292497919 0  0.6333752893366955 0.7023738550008095 0  0.7796219811205605 1.42573253164258 0  1.564399711917382 1.026040828857629 0  0.3385416666666666 0.4889012896825397 0  0.1041666666666667 0.390625 0  0.989112246382566 1.543537365516289 0  2.025724425454636 0.9846960595520872 0  0.6602885475034063 2.086117390485779 0  1.607130551925032 1.267198646640915 0  0.1317864544877056 0.8896173683400176 0  1.755387840017567 2.230364320056445 0  1.301540702984401 0.1216289692748247 0  1.433170657577442 0.3331052752740999 0  1.500459610550388 0.113513924782439 0  0.6494291520606965 1.029586599619295 0  1.010146149868299 0.794897284196169 0  0.3700844198238017 2.235390157870766 0  0.3360891767780704 2.36656279435396 0  1.876856241037701 1.437150669863757 0  1.778674102957329 1.245979347269706 0  0.5472829890977179 0.1005517127039925 0  0.4669074189005698 0.3416784232954367 0  1.472765289289269 1.850899166481903 0  1.555853593327178 1.608452097912802 0  0.6708955559113426 1.646561631116984 0  0.8164699620322933 0.5924479455478063 0  0.3167738989468366 1.758696809749795 0  0.2788007305565096 1.605499483471246 0  0.7821720982350511 0.181524936294752 0  1.376812251214195 2.313340247908297 0  1.785652202614777 0.5962261755537186 0  1.761467296310972 0.4679567244718574 0  2.2265625 1.8359375 0  2.3828125 1.9140625 0  0.5279531607054191 2.071552361614785 0  2.397573269551114 0.234375 0  2.383578172599618 0.3589298466020009 0  0.1024267304488855 2.265625 0  0.1164218274003825 2.141070153397999 0  0.2696857594953064 2.135405441512016 0  2.164961300137334 0.1375322943529536 0  2.137757548369486 0.2724194778647587 0  2.238873711826398 0.3626419179496562 0  0.1001414910226386 0.234375 0  0.2176339285714286 0.3478422619047619 0  0.2503620791333544 0.1061694061057066 0  2.336445461915368 0.1250451055247424 0  0.2154004640409726 2.3918124
[...]
<PointData  Scalars="f_16-0"> 
<DataArray  type="Float64"  Name="f_16-0"  format="ascii">1.1552586552222171e-04  2.2408483527573290e-05  1.3936075624573315e-06  4.6356061507630831e-05  1.9583238664142203e-05  4.6386294530424295e-06  1.3245892874355974e-04  9.9167950355836046e-04  1.1807997732507984e-03  1.0055682898142940e-03  2.7620473799304006e-05  1.2672539717233875e-04  6.9374177033184670e-04  9.8034697760868021e-07  9.3403633733925095e-06  6.6440255907049357e-05  1.6455427286243075e-04  1.4557712081130499e-05  8.1869111605310059e-04  3.9712359937638472e-04  4.9310008437756017e-04  1.2140213005911080e-03  9.0986325231498771e-04  1.6403129965140383e-03  4.6599755200132210e-04  9.4858351611542386e-04  1.9848571345804022e-05  3.9622008323598123e-04  5.8063538980213853e-06  5.0673970496610556e-06  4.6171929038154805e-04  2.3772287893540419e-04  1.1296092510056138e-03  5.3621440620711051e-04  2.7765104537073794e-04  1.2128919385317038e-03  1.1613528194726835e-05  1.3683354665591364e-03  1.0167099746896751e-03  2.1479826471746273e-04  2.4463397689210897e-05  5.6920413822714361e-05  2.8451365356191690e-05  9.2968003498156973e-04  8.1543438722801986e-05  1.1010292746847234e-04  1.0022176233637505e-03  1.6475195710900262e-03  8.4244864178040820e-04  1.4707670576370724e-05  2.3792475479569355e-05  1.1255474734747158e-04  4.1322535478331471e-06  1.0998469008106628e-06  1.0023897706488642e-03  9.3020229135044885e-04  1.2391514119672193e-04  1.1349804990394879e-06  3.5072619672835907e-04  1.4814721131826009e-04  2.6423804927348158e-05  6.3975079085818647e-05  7.6245273422529997e-04  4.0313362027242486e-04  1.2495988865227604e-03  7.8900268059901846e-04  1.0035596476235915e-03  5.9385137282263406e-06  3.3222477884466958e-04  2.8492520776044116e-05  3.9613724178024954e-04  3.4261531743841541e-05  8.5844116872661139e-04  1.8168285043477714e-03  1.3083628454187246e-04  1.0126568827340471e-03  2.1000801459190578e-04  2.0890054681743851e-04  3.8416332337072508e-04  1.7346168588884240e-05  1.9556480842832210e-03  4.9291302581621447e-05  1.9989006728394395e-04  7.6090638827898903e-05  8.6597103806738810e-06  2.1232733909313397e-06  2.8848733103164647e-06  6.2320096113422643e-04  5.2580332090896979e-04  2.6952903713615614e-04  6.3365241717127197e-06  2.5509311894936546e-06  5.2822809858187546e-04  4.7968033187378029e-06  2.3296087142254962e-04  9.6717939737263564e-04  9.7411186895164767e-04  3.0979033059544295e-05  5.3488100568593834e-04  2.1918177566680584e-04  1.0906056190775253e-03  8.4809078736412249e-04  6.2559695493251627e-04  7.6268251542182652e-04  1.4211375858575810e-05  1.5810491561643466e-03  1.0047412517433796e-03  1.2702228145213428e-03  1.8261363739138867e-04  1.6575547542101065e-04  9.0639185665888813e-04  9.9876981606963617e-04  1.0042570188598101e-03  1.3952917716915827e-03  1.1700179234842452e-03  2.8057181421846107e-04  9.0925099410896746e-04  2.7842035165822730e-05  6.2896714702530320e-04  5.1489534793574545e-04  1.0142380990475260e-03  2.2803057845896296e-04  1.4921779648678702e-04  1.4062292991280829e-03  5.7598516495854515e-05  6.6625597833154908e-05  1.6653765511676598e-03  1.3636713202410240e-04  3.0239387390987565e-04  1.4043503643175659e-05  1.9442818264390205e-04  8.5783206597399764e-04  9.8034289604618965e-04  1.5299108341160635e-05  9.4624519337646137e-06  1.1769035003837555e-03  9.8345356308535093e-04  1.0482412451973263e-03  1.2235720065390410e-03  1.5489589099314692e-03  2.5205897245438314e-05  2.0267082712870188e-05  2.1705076863908643e-05  2.0952851254856933e-05  1.1995621095452211e-04  7.8425393850095965e-05  7.4707785992700519e-05  3.0504539997215901e-04  7.1614364888782523e-04  3.7318019073517015e-06  1.5553831191103253e-04  1.9782754782571039e-03  2.5677401266274817e-05  2.4947088709126249e-04  7.7546397296166122e-04  1.3166448233749898e-03  8.7333626455455011e-06  7.6482568462813535e-06  1.2154778454366487e-05  9.6974070735369680e-05  1.5389070447547389e-04  6.6030450617719923e-04  2.1339318962352715e-06  2.5052560799108476e-06  1.3008185077091171e-06  1.1467593432369129e-04  1.9406525563619420e-04  9.9165988748504334e-04  1.0441947023010648e-03  9.8164256404431605e-04  3.8124904455672377e-04  3.2061304984431559e-05  6.9534762431120334e-04  2.0510940787535049e-05  1.9335016023257079e-04  3.6222991461564216e-04  1.1419651599896678e-03  6.5614887593796298e-05  1.0730209382619051e-03  1.1560420053486418e-03  5.8170357794982335e-04  7.8374346897997090e-04  2.4351579144098572e-04  1.1518148990798832e-05  1.2419773352557493e-04  1.1531858940240849e-04  1.1556563325884311e-05  1.2660281646529814e-04  1.0127145100668218e-06  1.8131995855205618e-06  6.6366405421242496e-06  1.0189176041197669e-06  1.7045770645462914e-05  2.9461349697014819e-05  1.0013512067801771e-03  9.7431783320547731e-04  8.4549654774084449e-04  5.3564595190334365e-04  4.6806021530421088e-05  7.9529316496034462e-05  3.7851423629073501e-04  9.3119084607313693e-04  1.1475557526650009e-04  7.4875841188059222e-04  8.9257385500640120e-04  8.1480172802038896e-04  6.4272539928828052e-04  4.4477572211092911e-04  1.3287707576816336e-04  1.0952283110421549e-03  1.6067490861737264e-04  3.6958095050261357e-04  7.8491967662150961e-05  1.5914903396947280e-05  7.8202822979284929e-04  1.7619144282095206e-03  6.1021331206931621e-06  1.0652797287794310e-03  1.8523640775976179e-05  3.7961197038486851e-04  2.8856816880252307e-05  2.0620116861600835e-04  8.9619620771031198e-06  4.3713365702293921e-06  3.5587587709791206e-04  6.6789364050993125e-04  5.0026253029526355e-04  9.7240959852319599e-04  4.4751211867366579e-05  1.2427983284265406e-05  1.2805655773338493e-03  2.6528987224791608e-04  1.5459624989528579e-04  1.2212754724144070e-03  9.1279999682699839e-04  2.0485494541335044e-04  2.2785527851709231e-05  9.2892125475039610e-05  1.8613160275164972e-05  8.6648308004006266e-05  5.8318809721362799e-04  6.7456930706156853e-04  7.6114405106756527e-04  3.9677505497712852e-04  3.9508229880730496e-04  7.8295828482624142e-04  4.0998892635214280e-04  9.7446610084495782e-04  1.4456050450100866e-03  8.3032650453939314e-05  2.4524012374219800e-04  2.4684795282996582e-04  1.3406015770557167e-03  1.6459407666959609e-03  1.0946867797174300e-03  1.9813771893051509e-04  2.1771802217100942e-03  1.3952826162237956e-03  1.1452786847670159e-03  1.4731707482854429e-05  4.8127412587763862e-04  4.8618490025017363e-04  1.0065333044844494e-03  4.3697177110500556e-04  1.8901810275396218e-05  1.7299091865501346e-05  1.5712156065699516e-05  1.4032704314411095e-03  6.9457807039765857e-04  3.1238866254456389e-04  1.8786264260021998e-04  3.3364832997317896e-04  2.3526754693980223e-04  3.1491552416625986e-05  8.0784628129043276e-04  1.0054705641986811e-03  1.0632211938493179e-03  8.9790500067050212e-04  6.2523071223993874e-04  8.2261251355202785e-04  9.1595723231305238e-04  2.8495648577610168e-05  2.7572598225598699e-04  1.1420428339906820e-05  1.1256503748063608e-05  2.2771386876646932e-04  1.1764722493951349e-04  4.9984684123924013e-04  1.6762104978371203e-06  1.7373459899007375e-06  2.7461577443773895e-04  4.1290313122276215e-04  4.1642990299577267e-04  4.2957824125525168e-06  4.6005523568160070e-06  3.2422163300934288e-06  4.3760608844366075e-03  2.7448357706866284e-03  1.1385448903371082e-04  2.3151288941378581e-06  1.6735157560158006e-04  3.4925383750304055e-04  2.0899463979837609e-04  1.1948673268658913e-05  1.6749589293483424e-04  2.5763432913805495e-05  3.0929334667487680e-05  5.8794983142782681e-04  7.7904645188037875e-04  1.4136710664858811e-03  6.3062052453976083e-04  8.1239164135214466e-06  1.7148475058152323e-06  1.6030034557096197e-06  1.1949936537624097e-04  1.0097583905504806e-03  6.9838807470806600e-04  7.0078976711435809e-04  5.8901403460887215e-05  1.6123855139761525e-04  7.9591436178817342e-04  9.5722431513050335e-06  1.3534889731467083e-03  8.9691841184735442e-04  8.7030588233527313e-04  3.9585858849758342e-06  2.4942616371144021e-05  7.4124951831625903e-06  4.8232961403784155e-04  9.9859151433232332e-04  2.1369290336847846e-06  1.0097944917695789e-03  1.0824491738663656e-03  3.5078997624354413e-04  5.2693999840305406e-04  6.9596354843228345e-06  1.7113441464151283e-04  9.6343811330248290e-04  9.8523712548282544e-04  2.7259581835625108e-05  3.3015192286209241e-05  1.5073436373730827e-03  1.3417633575408008e-05  2.9090104845736172e-05  4.9780001124904701e-04  1.0598019971973457e-05  5.3340263809138740e-05  6.8989362739065019e-04  6.6343013053701144e-04  1.7408506413874481e-04  1.3591623778024206e-03  1.2041618649094297e-03  1.9754238744044816e-03  1.5601268090850986e-03  1.3415739510293394e-05  8.9576407217876379e-04  9.9555394134848802e-04  1.1231174787609270e-05  4.2399539923083590e-06  1.7381993045842908e-04  1.6048904457303394e-04  6.9579723446092101e-05  3.1901315826024566e-04  9.9155347424746682e-05  2.5536855964651854e-05  1.6070284676947705e-04  1.5450172873822780e-05  6.2441197787974133e-04  5.1498722522370737e-04  6.8526408874899263e-04  1.0757416246147389e-03  9.5915300189036278e-04  6.1365170225693110e-04  3.0584274168205910e-04  1.1709301543796019e-03  1.2974609063486893e-03  5.9015155979770398e-04  1.8451218707447913e-04  1.5249368263407271e-03  8.2874367369877098e-04  1.4384476510441553e-03  1.1387085484329562e-03  8.1651274422550935e-06  1.2369497244029725e-03  9.1469049431729523e-04  1.2038501111512039e-03  6.5419181836760820e-04  4.6471180094387186e-04  3.5607311102514621e-06  1.0684897417166603e-03  2.2958853634818071e-05  9.5973809078720034e-05  3.2859237195279902e-04  1.0268105898632433e-03  1.4427752606622146e-03  3.1169727409597459e-04  1.0504482952567069e-03  1.3474663716317969e-05  1.2157522869373215e-04  1.3420760205320622e-03  1.0896457894880194e-03  1.0016724559002810e-03  3.6189311348611920e-05  1.1778735489259536e-05  1.2861721814183779e-03  3.8463586946817525e-05  2.3710748730457293e-04  9.4355691358782932e-04  1.6033994298085027e-03  1.7928518408370666e-06  9.4732569366502920e-05  1.7401527301237965e-04  3.9550222334411956e-04  3.6554398013614099e-06  8.5856596821598497e-04  9.3684143970603883e-04  3.5207842347114078e-04  1.8137116040474550e-03  1.1968235135600403e-03  1.1944615425399885e-04  1.3401339693083238e-03  8.4229949897826205e-04  6.8763295366125520e-04  4.1224038609073856e-04  1.0133988956912722e-03  1.0128130137042881e-03  7.3827593700000812e-04  7.7175712610882843e-04  7.5178439359877827e-04  5.8407501510315634e-04  2.6569554427830756e-05  1.3212515258496046e-03  1.6170848148192363e-04  2.5798295943666030e-04  6.1209362471598868e-06  1.9670118776847840e-05  5.8254165176669780e-04  1.7325555565817479e-05  6.6417965941037763e-04  2.6550533041711117e-05  2.6460295251985585e-06  8.3766825385604227e-04  1.0874293715976064e-03  1.0067615867298327e-05  1.0419215668218544e-04  1.5972081637390929e-03  1.0072483919891435e-03  4.2266254522122072e-05  2.6872667982112507e-05  3.2686276307811494e-06  1.1209171770955419e-03  9.9901059983648587e-04  3.7713885346486937e-04  1.4858461532268338e-04  3.4771892074208816e-06  1.2229818475229684e-04  4.2121902601926576e-04  1.5007157380360944e-03  1.3758039558451156e-03  1.0070475631734283e-03  1.1121744905958908e-03  1.7819662948104355e-05  9.9012306142502661e-04  5.2235858877782314e-06  5.7649557481283101e-06  9.8393648501620399e-04  2.8384829571096240e-04  1.1545183356270650e-03  1.5404681053781367e-05  1.1965661120314189e-03  7.7509385490888603e-06  1.3744369485547739e-04  2.7303341793005151e-04  2.1490063811871568e-05  1.9168706162388001e-05  1.8552922600780913e-05  1.0424181528151588e-03  8.8308770331651924e-04  1.2405846383038827e-03  5.2853259563098991e-05  1.1323226781096717e-04  3.1307879171067787e-04  2.2271019319580943e-04  2.6816355370978530e-04  1.0958054297280394e-03  1.5600680505318079e-04  5.0125672998933054e-04  2.2339597222956840e-05  1.2579727613127596e-03  4.2334836108717751e-04  9.8577240233039924e-04  1.7177987927373377e-05  2.6542818125183153e-04  1.4535536680186664e-04  1.0232488186046240e-06  5.1924336574276926e-05  1.1221616101343870e-04  4.8649878747395305e-04  6.7461818024235108e-04  3.6024514980345212e-04  7.0073610712323225e-06  2.3608932905480479e-04  1.0348772699707047e-03  2.9933990382491369e-05  9.7396504601954609e-07  1.4281878704463815e-06  1.6892981963977053e-04  2.3801771348183522e-05  7.5396685386967767e-04  7.9183389936728771e-04  3.6532862628322670e-05  2.0387469731753780e-04  3.5118059546299828e-05  5.3355793547137792e-04  1.5236686565002296e-04  1.1166080517471878e-03  5.4471665664924672e-05  7.7596326873093828e-04  5.9949824485640258e-04  1.5221384483883878e-04  1.6402663599010431e-04  2.1657284931359088e-05  3.3718820632758055e-05  9.2859921696014777e-04  2.4227218064389928e-06  3.5311480260363212e-04  7.1807582536823848e-04  1.2201146753011989e-04  5.9091691365447687e-05  5.3601800064515480e-04  5.3660899605878205e-04  3.0936472175630036e-04  4.8629287845829898e-06  2.0104808952318254e-05  9.9996803232169044e-07  8.1586754662768147e-06  6.1826827511164839e-06  1.4576207523014949e-05  8.6171653419047872e-05  1.6614723049945433e-04  7.2105430211261650e-05  1.3671645509512000e-06  4.3287508234870467e-04  4.6988123223134118e-06  1.0097392607015692e-03  1.0341124016555164e-03  1.0981114347295777e-04  4.0821710423218809e-04  2.2029564377249318e-04  3.4018791217995455e-04  1.1021255726401912e-04  2.0071871434085349e-04  2.3616236035444872e-04  2.7034266223925185e-04  2.3809571281660816e-06  3.5680327068558743e-04  8.6857881257010642e-04  6.9054773527850327e-05  5.0891961346498404e-04  2.6082406210293732e-04  3.2033682820761038e-06  2.0760503782626359e-03  2.4253947390446887e-03  1.7040100691641873e-03  8.1920278487064341e-04  1.6708159302618148e-06  6.8730168596751106e-04  1.0036035391409283e-03  1.3800525091213325e-06  2.1798131727793931e-04  1.5599774538493107e-05  1.3887804293081870e-05  5.3107156399733726e-04  8.9981418390899472e-05  1.1344129793227308e-03  3.4690747022009662e-04  1.1189199390191135e-04  1.0607425963182521e-03  9.5033017773232212e-04  1.1421559340540660e-03  1.8280362005056849e-05  1.4618178945749459e-06  8.2094668241719385e-04  8.8353502526600897e-04  4.4674357747555198e-05  3.0116655526983950e-05  7.3739365283296456e-05  1.2344227449894568e-03  1.0218261763418745e-03  1.0569691829333627e-03  1.0121157835791545e-03  9.9349090580596808e-04  6.6451255565160819e-04  4.3328462688613493e-05  5.2962975219962326e-05  1.9317939167648749e-05  7.0358763050860538e-04  9.8054243570113667e-04  1.9763919503435392e-04  2.8412412705897250e-05  4.9707479770543216e-05  9.5374604442675600e-04  2.8492688076969217e-04  2.6469634547966913e-06  1.3262010499328425e-06  1.3101557635576864e-03  1.2531334345781467e-03  5.1899555851163078e-04  9.6822054047876818e-04  2.7356607926804903e-03  8.2849991247401953e-04  8.9761789637438946e-06  2.2845194022037554e-05  2.7347586798173577e-04  2.8960214638046567e-06  2.0271831102787062e-04  7.7319429927509597e-04  3.0007881413589917e-04  5.4999899992636567e-04  4.1606060716038978e-04  6.6901416195224635e-05  3.0992817436206375e-04  2.3514210390985623e-04  2.1991028558496154e-05  3.0512983607295434e-05  4.1288328196593916e-04  1.8295652398364942e-05  1.5079572961520333e-04  2.4355702651170969e-03  4.2887988904206611e-04  1.3152554497997410e-06  1.2483826504211188e-03  1.5144970633892466e-03  5.7579109749013939e-05  2.7730904342566904e-04  9.7988415049829903e-04  2.9683377312736533e-05  1.6238873533034232e-04  4.3158991093963310e-05  3.7064637506670732e-06  6.0600847987849386e-06  2.3720898110202486e-05  1.6492976811976544e-05  1.8688191698994941e-03  8.7032245787933187e-04  4.1159699560992964e-04  5.3503668415313054e-04  7.6722236625130654e-04  4.9624513746648934e-04  1.1968606030161509e-05  9.7167756326665337e-04  1.4259510017057496e-03  1.0447487025831246e-03  2.5918750569616894e-04  1.9088820027218930e-05  6.9916921740421620e-06  4.3228812477502947e-04  9.9166639098112463e-04  1.7755334594452015e-04  3.7523061748243854e-05  2.0608975004641829e-05  9.0035085748074197e-05  1.2505196660951505e-04  1.3227303313732865e-04  1.4709102445345745e-04  1.1701718017821772e-04  1.3202844248651945e-04  8.9533647484909423e-04  1.2666442808358834e-04  3.7063667912970856e-05  1.0571285936772143e-05  1.3500971219563726e-05  2.7734703931877998e-06  7.1540203246772503e-06  1.8168909306426555e-05  1.0007823176841932e-03  9.9572712819838991e-04  9.8556361774393745e-04  1.2933516972254017e-04  1.0057669008305885e-03  2.4715881089285201e-05  7.9966923474228239e-06  6.2510451924425081e-04  1.1291807505903858e-04  2.4736445073975499e-05  2.6007333945654636e-04  1.2022155846193313e-06  2.8701601001058760e-05  1.6024351568554614e-05  7.8135864872501610e-04  9.8555781949654373e-04  1.6795435536906409e-04  7.4767565877555573e-05  5.5920955966679183e-05  5.6791704887143330e-05  9.5436464547872491e-04  1.3927747237951134e-04  1.0049473422570373e-03  5.7134297424442109e-05  8.3059461109003050e-05  1.0706655232718927e-06  9.9525659890481271e-06  3.9144318797585851e-04  1.0656458064733185e-03  1.5762875735083706e-04  2.4995389072382931e-05  1.7572953834493952e-04  1.3016047398156957e-03  1.8059270417378924e-03  1.7850758673061550e-03  1.7734224799259858e-04  3.1755348784411410e-05  1.5386829079829408e-03  1.0168864925840999e-03  5.5347068682983489e-04  1.2705970762281868e-03  8.4227361502957945e-05  4.9229849581842457e-04  9.5985879277225416e-04  9.3340743728296724e-04  9.0632223521150445e-04  9.8402739827332985e-04  1.0578202363549479e-03  1.3017106389505335e-03  8.7322519418316689e-06  9.6451371740534429e-04  6.7029188978445266e-04  3.0818729552623278e-05  1.7014792249982749e-03  1.9293912562192560e-05  9.4188793613444977e-04  5.4953946016441226e-04  1.3797560259422050e-03  1.0797132529761324e-03  1.1934103034149900e-03  6.0338119115308831e-04  1.8923779589644015e-05  1.4615204961848482e-03  1.4768092125894122e-03  8.0970839248386199e-06  4.1609219783328612e-06  1.4220659608463345e-03  5.0329848143948809e-06  3.3366237446072952e-06  1.1067900859252060e-03  1.4480808289641091e-04  6.5755697972478926e-04  3.5009518882044797e-04  8.0929485956147062e-04  1.2695945778633911e-04  8.7624412771834369e-04  8.4316956422909569e-04  5.6514573312042881e-04  2.1635417653815165e-04  1.3899042910346497e-04  1.5995374969365560e-04  9.5752064560098642e-05  4.1341571797440691e-04  9.7473023555580700e-04  5.7832171903547203e-04  8.0316315788881061e-04  1.5183705966648276e-04  7.2293137477314449e-04  6.8261058596613103e-04  2.4363952110277853e-04  2.4949510748915410e-04  1.1147017980638666e-05  9.3608252028508928e-06  4.9804391580638677e-04  6.3849272077944963e-04  9.2357055915148571e-04  9.0844840451058428e-04  8.4784680623310412e-04  8.8686505819736265e-04  4.0440306832851623e-06  3.0737045937464483e-04  3.0039773066787754e-04  3.3680135871964027e-04  3.7489425088461291e-04  2.9546238280445949e-04  3.2133179803965818e-04  8.4156081669762987e-04  1.6699584340008862e-05  1.0480679464745029e-04  1.5188434012943623e-06  5.7139872653789653e-05  9.6119006298611264e-04  1.0403984462991726e-03  9.9445114935407765e-04  6.0373741699479115e-04  6.8859454010798712e-06  1.1599409200405959e-03  1.8448251537662037e-05  3.1217748321225403e-04  1.4477606733797014e-03  8.5633069209328377e-06  4.2253952569015188e-04  4.0452992226963879e-04  1.0671038561999417e-04  4.9135479287769942e-06  1.4398990286431664e-04  9.6833434523070660e-04  1.2262188115724261e-03  8.6245728920279264e-04  9.9824069754212872e-04  8.0042225341014352e-04  7.0346630339276602e-04  7.6052828570698412e-04  2.2517282490720125e-06  3.0046499431639572e-05  1.1755916870819600e-03  9.8334293246642233e-04  9.9265006929425532e-04  2.6744709525174885e-04  1.5702689178210137e-04  7.3031350808432584e-06  1.3803121564294146e-04  7.5341858298770348e-06  2.8102994095656015e-06  1.9730143058203765e-04  4.4198957334987257e-04  1.4753196800739966e-05  1.5120362669735130e-04  5.3794627266018860e-06  7.8352807711910106e-04  2.5469491920165872e-04  3.2723398486871497e-04  3.9952897340987578e-04  2.3791045679523302e-04  4.1408326450658