<?xml version="1.0"?>
<VTKFile type="UnstructuredGrid"  version="0.1"  >
<UnstructuredGrid>
<Piece  NumberOfPoints="6486" NumberOfCells="12696">
<Points>
<DataArray  type="Float64"  NumberOfComponents="3"  format="ascii">0 2.5 0  0 0 0  2.5 0 0  2.5 2.5 0  1.25 0 0  2.5 1.25 0  1.25 2.5 0  0 1.25 0  1.25 1.25 0  0 0.625 0  0.625 0 0  0.625 2.5 0  0 1.875 0  2.5 0.625 0  1.875 0 0  2.5 1.875 0  1.875 2.5 0  1.770833333333333 0.7291666666666666 0  0.7291666666666666 1.770833333333333 0  0.9375 0.625 0  1.875 1.5625 0  0.642361111111111 1.163194444444444 0  1.341594827586207 1.883979885057471 0  0.46875 0.46875 0  2.03125 2.03125 0  0.3626104797979798 1.513178661616162 0  1.381740196078431 0.4564950980392157 0  0.9375 2.172619047619047 0  2.172619047619047 0.9375 0  2.096354166666667 0.4036458333333332 0  0.4036458333333333 2.096354166666667 0  1.684027777777778 1.163194444444444 0  0.3418803418803419 0.8693910256410255 0  1.642742622813391 2.162164207604464 0  1.275619849389031 0.8465650753054845 0  0.9136284722222221 1.434461805555556 0  1.732437511238546 0.3406962303960658 0  0.9714402568595876 1.029779313093998 0  1.52281746031746 1.485615079365079 0  2.1875 1.71875 0  1.06819722569879 0.2997236128493951 0  2.136114211309524 1.303478422619048 0  0.3125 0 0  0 0.3125 0  2.5 2.1875 0  2.1875 2.5 0  0.3200021620376328 1.192323085056694 0  0.6738456129277992 0.8304377375553881 0  1.757891808928991 1.861952730357003 0  1.5625 0 0  0.9375 0 0  0.3125 2.5 0  2.1875 0 0  2.5 0.9375 0  0 0.9375 0  0 1.5625 0  0.9375 2.5 0  2.5 0.3125 0  0 2.1875 0  1.5625 2.5 0  2.5 1.5625 0  0.7448220909826522 0.3003573636608841 0  1.027298850574712 1.871151477832512 0  1.331260495098891 2.197262878816185 0  1.207917681892289 1.582765010956622 0  0.4339993447432606 1.801186844743261 0  0.6337298768939392 1.443093039772727 0  2.049851190476191 0.6826636904761904 0  0.6584821428571428 2.219122023809524 0  1.89575676467455 0.9798457973793544 0  1.437570562095628 1.059380588255917 0  1.502090052505845 0.6987070896496241 0  0.2040860661083546 1.705323965099331 0  0.2083333333333333 0.46875 0  0.5070952039991439 0.2211150679997147 0  0.6916302856529919 0.5813591430410241 0  2.265625 1.953125 0  2.2265625 2.2265625 0  1.886424081252096 2.243391360417365 0  1.40625 0.202164758520858 0  0.2269345238095238 0.2269345238095238 0  1.152730869673694 0.5225850378741401 0  1.885631899587912 1.312095130148776 0  1.614808884009367 0.9049784971014416 0  1.890095442220658 0.5126535558463003 0  2.323168682795699 0.46875 0  2.268811725689575 0.2304742875213018 0  0.6002389442105756 1.967426444210576 0  0.1768313172043011 2.03125 0  0.2311882743104251 2.269525712478698 0  2.03125 0.176831317204301 0  2.280262553344767 0.6954945504579233 0  1.979219539285994 1.809922269642997 0  2.336309523809524 1.09375 0  1.09375 2.336309523809524 0  0.9314042474388009 1.662973812215543 0  0.1634067999087722 1.40625 0  2.337090640094896 1.40625 0  1.141616997467638 2.069311773587991 0  0.46875 2.338939559681489 0  1.542440307908715 1.734944797244472 0  1.556713687786879 1.956977865354753 0  0.8264238995344066 1.975424467820646 0  1.466326331454725 1.275271369760862 0  1.655675324257095 0.5444159974393489 0  0.3385416666666666 0.6479255698005697 0  0 0.78125 0  0.5236073939200119 0.984090461540625 0  2.091665741047893 1.519793517904215 0  1.71875 2.5 0  0.5356538886262603 1.623137930505009 0  0 1.09375 0  0.1932884281517095 1.015625 0  0.8569313582417669 1.2198915584249 0  0.8876981284879677 0.8329884081524883 0  1.115618488474214 0.7219586973356271 0  1.186950366204949 1.043465130075318 0  2.057459118787237 1.110823087309335 0  1.830651283878689 2.049810069572418 0  1.689107969301489 1.367247437031697 0  0.4921048768039656 1.298643370653124 0  0.8213975694444444 2.336309523809524 0  2.03125 2.5 0  1.049729400480002 1.283723261332814 0  1.308101375801673 0.6489479469700392 0  2.5 2.34375 0  0.4968777175037714 0.7562964879736076 0  1.40625 2.5 0  1.501347663534097 2.307027627307738 0  1.602813712048603 0.1926218191360736 0  0.8393082906308107 0.463778306132633 0  1.682663349152719 1.598471865581041 0  0.7774174680851571 1.560004941327907 0  1.554204170364662 0.3898593897892066 0  1.842184459051087 0.186443880058197 0  1.358107417651776 1.696381759610015 0  1.18859291992392 1.77598670078022 0  0.1875331222687418 0.7609599743339348 0  1.339536743965101 1.422080365801479 0  0.7788179348750389 0.9955343414928611 0  0.9062978492805438 0.1919636509126373 0  1.256007360640958 0.3160320559396114 0  1.09375 0 0  1.174986727221844 0.1594990293443933 0  2.34375 1.796875 0  2.318026474511116 1.589177949022232 0  2.34375 2.5 0  1.672742954892153 2.332882724550692 0  0.2683637361947215 1.874801596909639 0  2.174770749820102 0.5581009131310781 0  1.443279522965991 0.8870068372898454 0  0.3385416666666667 0.3571428571428572 0  0.78125 0 0  2.060421048269335 2.314363248763811 0  1.088078737088509 0.8967352118723447 0  1.087825368444708 1.454931510884769 0  2.018308232129541 0.8548495425854904 0  1.943987311736842 0.3246298523011434 0  1.71875 0 0  1.85337849796276 1.144833312386208 0  2.3486328125 2.1044921875 0  1.407588788651747 2.042968789119587 0  2.336309523809524 0.865366648092144 0  2.34375 0 0  2.5 0.15625 0  0.15625 2.5 0  0 2.34375 0  0.1638044648294291 1.242263417405867 0  0.356216654757926 1.032569427322806 0  0.3188217956111817 1.355736727000647 0  0.5924956460852111 0.36112522004736 0  0.6594216488965849 0.1603472116132387 0  1.841804599497131 1.72214349266521 0  0.15625 0 0  0 0.15625 0  2.115898634821499 1.894570904464496 0  0.7821877980253907 0.7129993435924866 0  1.003820447087786 0.4516053462784233 0  0.477562948779147 1.138333049293613 0  0.719493678605015 1.305655360135975 0  0.9772457618587566 2.020350128938537 0  0.8764738248887107 1.826219722709673 0  1.254787875123819 2.339010653832026 0  2.343597354852534 1.249982759769001 0  0.78125 2.5 0  0.46875 2.5 0  2.5 1.40625 0  1.09375 2.5 0  2.5 0.78125 0  2.5 1.09375 0  2.03125 0 0  2.5 0.46875 0  1.40625 0 0  0.46875 0 0  0 0.46875 0  0 1.40625 0  0 1.71875 0  0 2.03125 0  2.5 1.71875 0  2.5 2.03125 0  2.005424054645407 1.653223486966518 0  0.1538730573856537 1.559850281736677 0  2.33984375 2.33984375 0  1.166539506212474 1.922878979538754 0  0.3914885633949916 1.65887232812171 0  0.5795503163042564 1.766243562569382 0  0.399533125920212 1.946786875081388 0  0.7866324979014098 2.127719094551316 0  0.3654683023546834 0.1495701132219454 0  0.1527388747131078 0.6116379440619215 0  2.013737577140188 1.391056634712135 0  1.17635437372994 2.213329084238133 0  1.737118141866284 1.010577140843115 0  2.200707118087222 1.164723314085963 0  1.697018908736685 1.993548551451517 0  0.5387621649009668 0.6070503962352419 0  2.032805785855952 0.5330427622570983 0  1.082699501358059 1.667818725183932 0  1.503819781540653 0.5468420196858188 0  2.015409142866072 2.175941657590429 0  1.752057611265444 0.869642097111018 0  0.612251684107783 2.356045720700959 0  1.902817102342857 0.6607642211999982 0  2.159616561739693 0.7867739969338844 0  0.5120038350106624 2.197302352398502 0  1.888200216011548 1.919501662489862 0  1.495909909726654 2.16028358757309 0  0.489139876703609 1.443203008943564 0  0.8819175670410521 0.3301172743913011 0  1.882591144370812 0.8155965192707721 0  1.133979796994841 1.172526771862882 0  2.206217447916667 2.084147135416667 0  2.20361328125 2.36279296875 0  1.395746985657004 1.556054166359645 0  1.704383111516207 1.734750450338683 0  0.9575737847222222 2.36274223823052 0  1.035150984253136 0.1302833343179028 0  1.383966125325753 0.7651479963479179 0  1.64003252158672 0.6824316405528895 0  2.22550785055421 1.487078576356817 0  1.760964431499756 1.48495222505201 0  1.276460980673788 2.004207003584658 0  0.1341477688427096 1.828777507920502 0  1.542261434180652 1.155296658359034 0  1.334627911613854 0.9696897472490321 0  1.30794231473696 1.119420615785191 0  0.7028260459857245 0.4438906910721139 0  1.625757433094055 1.84268057552138 0  0.9818707849053143 1.165603626132254 0  2.0086489901463 1.243134585689553 0  1.934584460420609 2.374094051915812 0  1.798434376789567 2.38671361912528 0  1.206314791201715 1.382064292497919 0  0.6333752893366955 0.7023738550008095 0  0.7796219811205605 1.42573253164258 0  1.564399711917382 1.026040828857629 0  0.3385416666666666 0.4889012896825397 0  0.1041666666666667 0.390625 0  0.989112246382566 1.543537365516289 0  2.025724425454636 0.9846960595520872 0  0.6602885475034063 2.086117390485779 0  1.607130551925032 1.267198646640915 0  0.1317864544877056 0.8896173683400176 0  1.755387840017567 2.230364320056445 0  1.301540702984401 0.1216289692748247 0  1.433170657577442 0.3331052752740999 0  1.500459610550388 0.113513924782439 0  0.6494291520606965 1.029586599619295 0  1.010146149868299 0.794897284196169 0  0.3700844198238017 2.235390157870766 0  0.3360891767780704 2.36656279435396 0  1.876856241037701 1.437150669863757 0  1.778674102957329 1.245979347269706 0  0.5472829890977179 0.1005517127039925 0  0.4669074189005698 0.3416784232954367 0  1.472765289289269 1.850899166481903 0  1.555853593327178 1.608452097912802 0  0.6708955559113426 1.646561631116984 0  0.8164699620322933 0.5924479455478063 0  0.3167738989468366 1.758696809749795 0  0.2788007305565096 1.605499483471246 0  0.7821720982350511 0.181524936294752 0  1.376812251214195 2.313340247908297 0  1.785652202614777 0.5962261755537186 0  1.761467296310972 0.4679567244718574 0  2.2265625 1.8359375 0  2.3828125 1.9140625 0  0.5279531607054191 2.071552361614785 0  2.397573269551114 0.234375 0  2.383578172599618 0.3589298466020009 0  0.1024267304488855 2.265625 0  0.1164218274003825 2.141070153397999 0  0.2696857594953064 2.135405441512016 0  2.164961300137334 0.1375322943529536 0  2.137757548369486 0.2724194778647587 0  2.238873711826398 0.3626419179496562 0  0.1001414910226386 0.234375 0  0.2176339285714286 0.3478422619047619 0  0.2503620791333544 0.1061694061057066 0  2.336445461915368 0.1250451055247424 0  0.2154004640409726 2.3918124
[...]
<PointData  Scalars="f_16-0"> 
<DataArray  type="Float64"  Name="f_16-0"  format="ascii">9.9932477689007745e-04  4.2432185682703618e-05  2.5577829800886511e-05  9.6649545409739819e-04  3.9760029041260071e-05  3.0661241021665798e-05  1.0127941146331081e-03  1.0198323102904017e-03  1.2086389880991814e-03  1.0256027073049481e-03  4.7644404587353440e-05  1.0002583353749235e-03  1.0118835057153564e-03  2.4713243627822793e-05  3.2234909553643025e-05  2.6693730578401467e-04  1.1772360782651657e-03  3.6735268496804705e-05  1.0252746760536671e-03  4.1715758707213519e-04  5.9040133323616560e-04  1.2389005454972826e-03  1.2372591506197655e-03  1.6603372543196246e-03  1.0417812012953821e-03  1.0174540902824004e-03  4.0185640593277963e-05  1.0142285071435930e-03  3.0428455590955679e-05  2.9385442165083862e-05  1.0090099451374613e-03  2.6251644195665380e-04  1.1499272042775563e-03  1.2253487925712372e-03  2.9788881463592827e-04  1.2656738065022408e-03  3.3679003609953069e-05  1.3893288404404030e-03  1.0845022469096596e-03  3.8033485419106919e-04  4.4510986635461040e-05  9.0326413276474500e-05  4.8475068352789919e-05  9.4970379126603011e-04  6.3306038732446500e-04  1.1892528817948151e-03  1.0284738096106700e-03  1.6676639538303879e-03  1.1868602720776010e-03  3.5765854608506935e-05  4.3823658954310460e-05  9.9903526698935890e-04  2.8641653366025097e-05  2.4771254086899968e-05  1.0232201342101348e-03  1.0160729697556632e-03  1.0012211307280281e-03  2.5098216665633462e-05  1.0073151132903957e-03  1.0673929440520821e-03  8.0994784268894962e-05  8.3999428576165869e-05  1.0736536077955111e-03  1.0778630713052899e-03  1.3494665969347572e-03  1.0133691504998028e-03  1.0598294475161825e-03  3.0049852678352614e-05  1.0072487051833443e-03  5.2001081538292041e-05  4.1745402166130604e-04  5.4932159563424121e-05  1.0143353714676625e-03  1.8368528161647364e-03  1.5086000404346178e-04  1.0326834848677902e-03  5.8873099607457643e-04  1.0091879171906437e-03  1.2389303051875253e-03  3.7808887992164387e-05  1.9756717955775505e-03  6.9363381940267872e-05  2.3536618129248123e-04  9.7355823695902019e-05  3.1822034930176279e-05  2.6604443946337396e-05  2.7489860532514645e-05  1.0116231800094315e-03  1.0098216919733815e-03  1.0057058460626292e-03  3.0294620449175928e-05  2.7084634495023382e-05  8.1694839057663165e-04  2.9880711531002160e-05  1.0135216097908572e-03  1.1154473974546528e-03  1.0180329578159556e-03  6.9838203543200203e-05  1.0551539541251902e-03  1.0043438334592573e-03  1.2899448106249683e-03  1.2808866889590699e-03  1.0186275082231008e-03  7.9177834004220526e-04  3.5615308448484091e-05  1.6010839195475016e-03  1.0249476256422494e-03  1.2911917007308517e-03  2.5533400868562044e-04  1.1222050990481191e-03  1.0195038796209988e-03  1.0215067602882854e-03  1.0259014602273125e-03  1.4220856865859912e-03  1.1901384594134032e-03  3.0064464123209013e-04  9.3039788189982423e-04  5.3683388099210810e-05  1.2325906467812958e-03  5.5560380111790736e-04  1.0486211913489274e-03  1.0053694143952691e-03  1.2108039884860475e-03  1.4384483274828901e-03  7.7801374884959578e-05  8.2804218129068751e-04  1.6854547255254065e-03  1.0311659020887948e-03  1.1011833876829473e-03  3.5295584371998084e-05  2.1445406055325261e-04  9.7461079604476818e-04  1.0770119880682048e-03  3.6238262227608145e-05  3.2310748677554015e-05  1.3366864576624627e-03  1.2102874341804431e-03  1.0683603358604703e-03  1.2724524819764187e-03  1.5698266256668736e-03  4.5234811282444389e-05  4.0424347532199902e-05  4.1768221166910582e-05  4.1043492756184502e-05  3.0545225593703865e-04  1.5817289994626615e-04  1.0931761121731204e-03  1.1630128501776680e-03  1.0121646988117210e-03  2.8282047937760496e-05  1.7611012731479092e-04  1.9982992707864300e-03  4.5702647560801284e-05  1.2023411225988983e-03  7.9569309326801613e-04  1.3745290624874163e-03  3.2674011967962644e-05  3.1159269106621025e-05  3.4021731091350638e-05  1.2239521575390687e-04  6.9223748786062457e-04  1.1799574188066885e-03  2.6503662241450971e-05  2.7096132039635247e-05  2.5421906416852684e-05  9.9925703667403743e-04  1.0033769020584839e-03  1.0199988064366777e-03  1.0658482407216062e-03  1.0201299326256567e-03  4.0127289041315715e-04  5.2085264340365447e-05  9.0547850506515813e-04  4.0534642936410581e-05  2.1337386550199802e-04  7.2892845558723428e-04  1.1620098174188712e-03  8.5651433273412804e-05  1.0970108713239963e-03  1.1907035340128825e-03  1.0301343781710407e-03  1.0416839952843279e-03  1.0301071767934785e-03  3.9388317044608506e-05  1.0005194474165052e-03  9.9930908461947341e-04  4.4129890232368295e-05  1.0043101496141199e-03  2.4744946399102243e-05  2.5838566028896940e-05  3.0495634587342149e-05  2.4829939337229303e-05  3.7559101536167289e-05  4.9485056374373504e-05  1.0213754506587618e-03  1.0180575749001483e-03  1.0141006549310035e-03  1.0099354112576746e-03  1.5114430466547883e-04  4.3851153362785972e-04  5.2060224109824835e-04  1.0160984811600979e-03  9.9236941852579312e-04  1.1141995340861234e-03  1.0153883524438730e-03  1.0157779208115080e-03  1.0112666135899653e-03  1.0106900430822867e-03  1.5290078084046884e-04  1.1152605076295984e-03  2.0579550625007164e-04  1.0354300087677588e-03  1.0101330150081515e-04  4.2562635328193392e-05  1.2750128599159096e-03  1.7819436198951344e-03  3.0123901747141370e-05  1.2129605609974040e-03  3.9221194474418959e-05  1.1732346418176602e-03  5.0913946371913627e-05  1.0040645605421770e-03  3.2150079169402136e-05  2.8857762836080902e-05  1.0074776714031962e-03  1.0957205561026833e-03  1.1626558129770232e-03  1.0267205778611982e-03  6.4778868969560745e-05  3.5540249382950449e-05  1.3049185319797493e-03  8.7168746889338159e-04  1.1341669738940967e-03  1.3106706324519336e-03  1.1317368423386708e-03  1.0062202053438950e-03  4.2826817721249105e-05  1.1321878662587343e-04  3.9967448820009802e-05  1.4370462571997340e-04  6.5086445428040455e-04  1.1308679454030504e-03  1.0127753058908106e-03  4.2022603350904450e-04  4.1562807153651231e-04  8.0522729747811760e-04  4.3001324830759555e-04  1.2780425059028759e-03  1.4700783665717338e-03  1.1339806771636713e-04  1.2216878187167341e-03  1.1865911155269459e-03  1.3833280200354721e-03  1.6659848403375718e-03  1.1482159667524918e-03  2.1961939597581624e-04  2.1972048159745817e-03  1.4153064898346950e-03  1.2321255244879229e-03  3.9102761452335266e-05  1.0098051737840736e-03  5.1518214708277357e-04  1.0270471551151671e-03  1.2299571835784995e-03  3.9146746647077479e-05  3.7793275342498363e-05  3.6511460228964683e-05  1.4246951204713778e-03  7.1466783483864406e-04  1.0066496379505816e-03  1.0032305504025824e-03  3.8795034850642773e-04  2.6444188585596164e-04  5.1515289711768177e-05  8.2787004780248341e-04  1.3041004117771088e-03  1.1827074637426481e-03  1.0300437141913708e-03  6.4525928591770035e-04  1.0137268480419623e-03  1.0156831140431741e-03  4.8520676634382878e-05  1.0600003599602202e-03  3.3719375599197198e-05  3.3474982672375124e-05  4.8714859516432258e-04  3.9249850743643973e-04  1.0095864278058550e-03  2.6011001517643977e-05  2.6089514981364502e-05  1.0057604559521006e-03  1.0083082363599916e-03  1.0083721487473638e-03  2.8774490909667533e-05  2.9030578854242820e-05  2.7855171375916215e-05  4.3960845977441352e-03  2.7648595639552837e-03  1.3387819173529152e-04  2.6860872654937858e-05  1.0022310867564702e-03  1.0192922668953420e-03  2.2901834253317334e-04  3.3888908662627737e-05  1.8754422057941223e-04  4.5841422957557050e-05  5.1103777662809740e-05  1.0105767683156997e-03  8.4425991694771349e-04  1.4369874099074760e-03  1.0110974944177533e-03  3.1468551047284074e-05  2.6024573567966018e-05  2.5813597818187835e-05  8.0950348990027122e-04  1.0297827821258230e-03  1.0160994076014317e-03  1.0122725783548484e-03  7.9740368196009982e-05  2.5832489882624628e-04  8.3583711169018409e-04  3.2383991857398905e-05  1.3738059192297983e-03  1.0532425203618316e-03  1.0919603018158348e-03  2.8468429382097368e-05  4.4969448938627195e-05  3.2494755903447357e-05  1.0715417554876864e-03  1.0227716791952400e-03  2.6434103888340101e-05  1.0298637545022265e-03  1.1144681137867415e-03  5.5345859158221090e-04  9.4846401208665458e-04  3.0705743776626699e-05  1.0127162819153072e-03  1.0175774485444767e-03  1.0189698101043209e-03  7.3044323844626558e-05  6.6412172157372465e-05  1.5291088396239528e-03  3.4862251969563913e-05  5.0540074688819440e-05  1.2199155288569455e-03  3.3025087415515022e-05  1.3670179740868718e-04  1.2552341034999910e-03  6.8703138687004940e-04  1.0030043980939732e-03  1.3930762643117509e-03  1.2242564825965447e-03  1.9954508629938029e-03  1.5801542228359848e-03  3.4904399187505991e-05  1.0151366783284139e-03  1.0206165073679064e-03  4.0945101764547440e-05  2.9462069924205545e-05  1.0288712165031023e-03  1.0019353194107893e-03  9.7709744831836020e-04  4.0442730496161099e-04  1.4505570166436322e-04  4.5894159866575041e-05  1.2037784648312884e-03  3.6322810394108321e-05  1.2627003937962318e-03  1.0166911610289824e-03  1.0342708497931567e-03  1.1078277139718255e-03  1.0171823746499180e-03  6.3367542107273754e-04  1.0610888473858132e-03  1.3111991192752623e-03  1.3195062345292021e-03  6.1049309552504809e-04  1.0609947014312644e-03  1.5454452917763790e-03  8.4879335646240097e-04  1.4585687035898816e-03  1.1589940119780548e-03  3.1825545014737342e-05  1.2743450743386031e-03  1.1430296385363822e-03  1.2989266398090225e-03  1.0605575306002445e-03  1.0260207786108671e-03  2.8187713933564038e-05  1.1530063006649500e-03  4.3113877632798648e-05  1.1599761635908773e-04  1.0086875426995525e-03  1.0473799391666175e-03  1.4631950088386343e-03  7.9225247284029309e-04  1.0970321802239904e-03  3.4910104925203457e-05  2.5282897781772525e-04  1.3854560804604345e-03  1.1096706699108456e-03  1.0229667320775032e-03  6.0840944721175455e-05  3.6683776719851327e-05  1.3618512558389870e-03  6.7068370269428618e-05  1.1050778449348958e-03  1.0324660927119975e-03  1.6235807180787739e-03  2.6181550133502215e-05  1.1482760441774153e-04  1.9415735520239449e-04  4.1563995951090788e-04  2.8236990834299511e-05  1.0154258488508604e-03  1.0191746731579435e-03  3.9374484422100681e-04  1.8337484279964467e-03  1.2194281419047629e-03  9.9963555084789596e-04  1.3707014645622584e-03  1.2434674084665809e-03  9.9158596249344509e-04  1.1633750318633138e-03  1.0559387277094599e-03  1.0411548247634356e-03  1.0141775242926410e-03  9.3009595622060902e-04  1.2181063271752518e-03  1.1410473781091927e-03  4.6593960879166225e-05  1.3863771698333089e-03  1.0029951268722196e-03  1.0058129227247534e-03  3.0145277687499480e-05  3.9844493015832715e-05  1.0127269939137979e-03  3.7790391366573910e-05  1.2168153984224656e-03  4.6575179837908251e-05  2.7215642251877101e-05  1.0139662090689042e-03  1.1080595686684914e-03  3.2692087560878305e-05  1.1083951383058701e-03  1.6175999783234044e-03  1.1734835980924620e-03  6.2652565660397926e-05  4.6905878495848338e-05  2.7878151676602091e-05  1.2737282860033154e-03  1.0218444333044763e-03  1.1023215089161703e-03  5.4898424494996935e-04  2.8045638120727750e-05  1.0021216097541516e-03  4.4126763755013006e-04  1.5207857306961121e-03  1.4165970224797268e-03  1.0272681278209934e-03  1.3234791847815373e-03  3.8829711585897740e-05  1.0207145807189487e-03  2.9491019556901501e-05  2.9893028846549874e-05  1.0255096154115513e-03  1.0091687219161880e-03  1.1753084740516527e-03  3.6428968128409536e-05  1.2166082834903767e-03  3.1228986998736803e-05  1.5746837899130640e-04  2.9306202629960547e-04  4.1574026125432748e-05  3.9446235883148390e-05  3.8848426850435075e-05  1.2719607847260350e-03  1.1920680810893133e-03  1.3550220164381221e-03  7.2876967935711425e-05  9.9913364534282923e-04  1.2264312261696354e-03  1.1304169762946482e-03  1.0057682515285846e-03  1.1225167975571519e-03  1.0908982586643715e-03  5.2128201855381438e-04  4.2392319997290225e-05  1.2849887838642078e-03  1.0086093976753503e-03  1.0614970842458189e-03  3.7761140396240193e-05  4.0007667965254282e-04  1.6630951038143943e-04  2.4710768337934965e-05  1.0628062166164334e-04  1.4088601384298891e-04  1.2484647044537997e-03  1.0116387739396201e-03  9.8038286084864705e-04  3.0766996265673471e-05  2.5876641201329187e-04  1.0575292718552087e-03  4.9957694973032725e-05  2.4716318092599368e-05  2.5574114229761354e-05  1.0062072811294744e-03  4.3833445109294995e-05  1.0126981409405852e-03  1.0132198581082963e-03  5.9245255505312565e-05  1.2186986091301882e-03  5.5154264048017379e-05  1.1148337075984379e-03  1.7240210788841085e-04  1.1383582171099593e-03  8.0786254564599227e-05  1.0129953577229429e-03  1.0108216444351134e-03  1.0015888961387442e-03  1.0021819569026630e-03  4.1721636199215267e-05  5.3744662847524873e-05  9.5346502399970643e-04  2.6910820895716323e-05  1.0080902910706954e-03  1.0233662428273649e-03  1.4583691149020169e-04  8.2496464294097598e-05  6.8370704931390493e-04  1.0099556592699343e-03  5.6015902464398787e-04  2.9206871096392614e-05  4.0242170431059550e-05  2.4739052476106886e-05  3.2498358436279822e-05  3.0345586287496601e-05  3.8307205847610975e-05  2.7571724755156803e-04  4.4132037265021752e-04  1.9781797953534198e-04  2.5534144423460573e-05  1.0339083499989524e-03  2.9095713243851989e-05  1.0330649454215616e-03  1.0575732973034763e-03  1.3155612958099422e-04  1.1903197977427996e-03  1.1465164490956608e-03  3.6880825749392618e-04  6.5519244333369113e-04  8.6467993445006868e-04  2.5653956231084314e-04  2.9107657950301586e-04  2.6931270777880061e-05  1.0074592088447807e-03  1.0654268130072162e-03  8.9084009927335351e-05  7.0956492890195675e-04  1.0109321723527826e-03  2.7807266056985969e-05  2.0960741163411631e-03  2.4454186963886841e-03  1.7240339682644296e-03  1.1199383607132598e-03  2.6009940115083188e-05  7.8626834993467197e-04  1.0240498811028341e-03  2.5474013808454289e-05  1.0042226009887346e-03  3.6428061766589284e-05  3.5615679685300660e-05  1.1448740571691077e-03  8.5327090702308646e-04  1.2308850270217684e-03  1.2226399218946205e-03  5.3206008944103834e-04  1.0809645516654833e-03  1.0262366971849953e-03  1.3081011961741612e-03  4.6732643727158430e-05  2.5482499521384364e-05  1.0366188120023755e-03  1.2689835475587306e-03  6.4698118537125898e-05  5.1089284834714630e-05  3.4182682407300335e-04  1.2694383476235592e-03  1.0430241913180396e-03  1.0985679841397111e-03  1.2383373976605750e-03  1.0251418980792518e-03  6.8555615771125490e-04  6.3379663860533078e-05  9.5321346980340826e-05  4.2452495576200586e-05  7.2361133934002459e-04  1.0187849709518003e-03  2.1766319088195287e-04  4.8436299569395151e-05  6.9731534323376276e-05  9.7377004227059305e-04  3.0495062771056919e-04  2.7097196800144965e-05  2.5100709429227908e-05  1.3658792653793868e-03  1.3145569719391055e-03  5.4009146996077887e-04  1.0188617337679175e-03  2.7556845481167499e-03  1.0891295730360872e-03  3.5244266070221773e-05  4.2885293391618848e-05  6.3451405064712633e-04  2.7496111842530377e-05  7.2375311840732848e-04  1.1927137832158684e-03  1.1585924062942749e-03  5.7011521537909927e-04  7.1565591599711219e-04  8.7433313415857057e-05  1.0499131271360955e-03  1.0202440060490797e-03  4.2014730710021897e-05  5.0536685817728242e-05  8.9243605167320514e-04  3.8612248086689459e-05  9.4967135491129016e-04  2.4555939707716526e-03  1.0085215697132844e-03  2.5398076031370412e-05  1.2684173358095373e-03  1.5345581851882839e-03  7.9346569341394866e-05  3.7972772194620405e-04  1.1001806930162577e-03  4.9731778902237957e-05  1.1985030900746744e-03  6.3182694262534919e-05  2.8273209470300296e-05  3.0099307329598495e-05  4.3756747204426769e-05  4.2235495729621257e-05  1.8888463419593120e-03  1.0145918867824932e-03  1.0117793387081674e-03  1.0138990833160892e-03  1.0551448887140761e-03  1.1469172696699089e-03  3.3900701925624230e-05  1.0602534540966719e-03  1.4549480830479736e-03  1.2934669224776395e-03  3.1855221819288259e-04  5.0606413680617569e-05  3.3862465661289099e-05  1.0086004285215456e-03  1.0198339753290534e-03  1.0419670270736660e-03  9.6721409192277648e-05  4.0715194792000203e-05  1.1515186948382490e-03  1.0008033013472085e-03  1.2077596645172033e-03  1.0012715359879031e-03  9.9943716518971970e-04  1.0204232398596145e-03  1.0151296598035536e-03  1.0004687482613494e-03  1.1232710200633266e-04  3.3008049510987357e-05  3.4917851828445174e-05  2.7401749582356171e-05  3.5315787755385320e-05  5.9499764670389956e-05  1.0223417683266854e-03  1.0206380331418457e-03  1.0190109019998373e-03  1.0078734219403397e-03  1.0258335114500525e-03  4.4743122471676147e-05  3.1386750754312268e-05  1.0110290703382839e-03  9.9907709408389770e-04  4.4760147383176408e-05  1.0053809119141106e-03  2.5239675091109510e-05  4.8725337060400016e-05  3.6747756495656529e-05  8.0138236539674911e-04  1.0055817005817252e-03  1.1529745695885282e-03  7.3240938067997328e-04  9.1490612165468237e-04  1.0237699284590591e-03  1.0169829220601696e-03  1.0472505276131693e-03  1.0249737204491066e-03  1.9956700520967977e-04  5.2956197538558828e-04  2.4954693455767847e-05  3.3108473601647871e-05  1.0538052193346907e-03  1.1886774373713654e-03  1.0024054015905874e-03  4.5570172859460394e-05  1.0193762386181003e-03  1.3216307029732283e-03  1.8259683874104324e-03  1.8051014451405207e-03  3.6211132020686626e-04  5.1779054452410361e-05  1.5590250278569447e-03  1.0369161983574645e-03  1.0101625913722029e-03  1.3007749903614452e-03  1.0427582858948619e-04  1.0202096065605260e-03  1.0171963743058720e-03  1.0161720818704012e-03  1.0153815992171411e-03  1.0189133368222057e-03  1.0778735161621695e-03  1.3217365803792711e-03  3.4404940060790432e-05  1.3002993012601145e-03  1.0465527625192368e-03  6.0227464880406120e-05  1.7215683002209218e-03  5.5668691508573083e-05  1.0164867770545169e-03  1.0419587256578261e-03  1.4043142381103622e-03  1.1004565855094644e-03  1.2557374429448254e-03  1.0231903946756758e-03  3.9440458882509338e-05  1.4832914365653612e-03  1.5002597763469718e-03  3.1447448682647851e-05  2.8961254433772841e-05  1.4425077409713116e-03  2.9529714949780579e-05  2.7896166826603555e-05  1.1704975083833798e-03  1.6773069678140920e-04  6.7759075944590248e-04  3.8449238622946958e-04  8.2931954147207607e-04  2.3066008193228576e-04  1.0195906889703622e-03  1.0217869461578003e-03  1.2111946434465394e-03  2.5935752238558600e-04  1.7405737484469663e-04  2.1451472094022244e-04  1.3135626643254511e-04  1.0088612440614395e-03  1.0180678654879152e-03  1.0860856583119827e-03  1.0141735457834132e-03  1.7207347285913389e-04  1.0123296088182085e-03  1.0117391797243233e-03  1.0675408487742955e-03  2.7061492855086420e-04  3.3709595599656609e-05  3.2321315155513792e-05  1.0094715845557411e-03  1.0771741631073629e-03  1.0161471645921936e-03  1.0169178311076597e-03  1.0144437064861667e-03  9.0743985533962574e-04  2.8576514454841122e-05  1.0215909900429399e-03  1.0323580850805294e-03  1.0071921229806641e-03  1.0077707673755666e-03  1.0063373383872090e-03  1.1424273825138219e-03  8.9589779591364184e-04  3.7287036262428861e-05  1.7943910762888512e-04  2.5638112472633760e-05  9.4992713055934652e-05  1.1464872390508783e-03  1.0949030636740978e-03  1.0212995849638203e-03  6.4019800386510444e-04  3.0665038824907453e-05  1.1800084352438425e-03  3.8748738612100514e-05  1.1908853036111851e-03  1.4678923613279376e-03  3.1744213730337613e-05  1.0988533658235209e-03  1.2213569425433730e-03  4.3357169120094381e-04  2.9282124368921149e-05  1.0010202677013962e-03  1.0213690808795329e-03  1.3449670753761282e-03  8.8909521340252212e-04  1.0321559999606628e-03  1.2797742875326535e-03  1.2575220581177832e-03  1.0175685919877034e-03  2.6766699696987911e-05  5.0142730701163552e-05  1.2943834324237596e-03  1.0388477284712548e-03  1.0352125758661315e-03  1.0058014333401730e-03  1.0019466829633231e-03  3.0943357255177744e-05  1.0007430106598338e-03  3.1195522339220375e-05  2.7422428557710633e-05  1.1815289343692348e-03  1.0087626130303926e-03  3.5797405655750815e-05  1.0558768249182154e-03  2.9620789400755264e-05  1.2442673018695941e-03  1.0053599691418557e-03  1.0069415341412082e-03  1.0081339760358930e-03  1.0048956304471734e-03  4.3444066142578