<?xml version="1.0"?>
<VTKFile type="UnstructuredGrid"  version="0.1"  >
<UnstructuredGrid>
<Piece  NumberOfPoints="6486" NumberOfCells="12696">
<Points>
<DataArray  type="Float64"  NumberOfComponents="3"  format="ascii">0 5 0  0 0 0  5 0 0  5 5 0  2.5 0 0  5 2.5 0  2.5 5 0  0 2.5 0  2.5 2.5 0  0 1.25 0  1.25 0 0  1.25 5 0  0 3.75 0  5 1.25 0  3.75 0 0  5 3.75 0  3.75 5 0  3.541666666666667 1.458333333333333 0  1.458333333333333 3.541666666666667 0  1.875 1.25 0  3.75 3.125 0  1.284722222222222 2.326388888888889 0  2.683189655172414 3.767959770114943 0  0.9375 0.9375 0  4.0625 4.0625 0  0.7252209595959597 3.026357323232324 0  2.763480392156863 0.9129901960784315 0  1.875 4.345238095238095 0  4.345238095238095 1.875 0  4.192708333333333 0.8072916666666664 0  0.8072916666666665 4.192708333333334 0  3.368055555555555 2.326388888888889 0  0.6837606837606839 1.738782051282051 0  3.285485245626782 4.324328415208927 0  2.551239698778062 1.693130150610969 0  1.827256944444444 2.868923611111111 0  3.464875022477093 0.6813924607921316 0  1.942880513719175 2.059558626187995 0  3.04563492063492 2.971230158730159 0  4.375 3.4375 0  2.13639445139758 0.5994472256987903 0  4.272228422619047 2.606956845238095 0  0.625 0 0  0 0.625 0  5 4.375 0  4.375 5 0  0.6400043240752655 2.384646170113389 0  1.347691225855598 1.660875475110776 0  3.515783617857982 3.723905460714006 0  3.125 0 0  1.875 0 0  0.625 5 0  4.375 0 0  5 1.875 0  0 1.875 0  0 3.125 0  1.875 5 0  5 0.625 0  0 4.375 0  3.125 5 0  5 3.125 0  1.489644181965304 0.6007147273217681 0  2.054597701149425 3.742302955665024 0  2.662520990197781 4.39452575763237 0  2.415835363784578 3.165530021913244 0  0.8679986894865213 3.602373689486522 0  1.267459753787878 2.886186079545454 0  4.099702380952381 1.365327380952381 0  1.316964285714286 4.438244047619047 0  3.7915135293491 1.959691594758709 0  2.875141124191255 2.118761176511833 0  3.00418010501169 1.397414179299248 0  0.4081721322167092 3.410647930198662 0  0.4166666666666666 0.9375 0  1.014190407998288 0.4422301359994293 0  1.383260571305984 1.162718286082048 0  4.53125 3.90625 0  4.453125 4.453125 0  3.772848162504192 4.48678272083473 0  2.8125 0.404329517041716 0  0.4538690476190476 0.4538690476190476 0  2.305461739347387 1.04517007574828 0  3.771263799175824 2.624190260297553 0  3.229617768018734 1.809956994202883 0  3.780190884441317 1.025307111692601 0  4.646337365591398 0.9375 0  4.537623451379149 0.4609485750426037 0  1.200477888421151 3.934852888421152 0  0.3536626344086022 4.0625 0  0.4623765486208503 4.539051424957397 0  4.0625 0.353662634408602 0  4.560525106689535 1.390989100915847 0  3.958439078571988 3.619844539285994 0  4.672619047619047 2.1875 0  2.1875 4.672619047619047 0  1.862808494877602 3.325947624431087 0  0.3268135998175443 2.8125 0  4.674181280189791 2.8125 0  2.283233994935276 4.138623547175983 0  0.9375 4.677879119362977 0  3.08488061581743 3.469889594488945 0  3.113427375573758 3.913955730709506 0  1.652847799068813 3.950848935641292 0  2.932652662909449 2.550542739521724 0  3.311350648514189 1.088831994878698 0  0.6770833333333333 1.295851139601139 0  0 1.5625 0  1.047214787840024 1.96818092308125 0  4.183331482095785 3.03958703580843 0  3.4375 5 0  1.071307777252521 3.246275861010018 0  0 2.1875 0  0.386576856303419 2.03125 0  1.713862716483534 2.439783116849799 0  1.775396256975935 1.665976816304977 0  2.231236976948428 1.443917394671254 0  2.373900732409897 2.086930260150635 0  4.114918237574474 2.221646174618671 0  3.661302567757379 4.099620139144836 0  3.378215938602977 2.734494874063393 0  0.9842097536079312 2.597286741306247 0  1.642795138888889 4.672619047619047 0  4.0625 5 0  2.099458800960004 2.567446522665629 0  2.616202751603346 1.297895893940078 0  5 4.6875 0  0.9937554350075428 1.512592975947215 0  2.8125 5 0  3.002695327068194 4.614055254615477 0  3.205627424097207 0.3852436382721472 0  1.678616581261621 0.927556612265266 0  3.365326698305438 3.196943731162083 0  1.554834936170314 3.120009882655813 0  3.108408340729323 0.7797187795784133 0  3.684368918102174 0.3728877601163941 0  2.716214835303553 3.39276351922003 0  2.37718583984784 3.551973401560441 0  0.3750662445374837 1.52191994866787 0  2.679073487930202 2.844160731602957 0  1.557635869750078 1.991068682985722 0  1.812595698561088 0.3839273018252746 0  2.512014721281916 0.6320641118792227 0  2.1875 0 0  2.349973454443689 0.3189980586887866 0  4.6875 3.59375 0  4.636052949022233 3.178355898044465 0  4.6875 5 0  3.345485909784306 4.665765449101383 0  0.536727472389443 3.749603193819277 0  4.349541499640203 1.116201826262156 0  2.886559045931982 1.774013674579691 0  0.6770833333333334 0.7142857142857143 0  1.5625 0 0  4.120842096538671 4.628726497527622 0  2.176157474177018 1.793470423744689 0  2.175650736889416 2.909863021769539 0  4.036616464259081 1.709699085170981 0  3.887974623473683 0.6492597046022868 0  3.4375 0 0  3.70675699592552 2.289666624772415 0  4.697265625 4.208984375 0  2.815177577303495 4.085937578239174 0  4.672619047619047 1.730733296184288 0  4.6875 0 0  5 0.3125 0  0.3125 5 0  0 4.6875 0  0.3276089296588581 2.484526834811734 0  0.712433309515852 2.065138854645612 0  0.6376435912223634 2.711473454001295 0  1.184991292170422 0.7222504400947201 0  1.31884329779317 0.3206944232264773 0  3.683609198994263 3.44428698533042 0  0.3125 0 0  0 0.3125 0  4.231797269642997 3.789141808928991 0  1.564375596050781 1.425998687184973 0  2.007640894175573 0.9032106925568466 0  0.955125897558294 2.276666098587227 0  1.43898735721003 2.611310720271951 0  1.954491523717513 4.040700257877075 0  1.752947649777421 3.652439445419346 0  2.509575750247638 4.678021307664052 0  4.687194709705067 2.499965519538002 0  1.5625 5 0  0.9375 5 0  5 2.8125 0  2.1875 5 0  5 1.5625 0  5 2.1875 0  4.0625 0 0  5 0.9375 0  2.8125 0 0  0.9375 0 0  0 0.9375 0  0 2.8125 0  0 3.4375 0  0 4.0625 0  5 3.4375 0  5 4.0625 0  4.010848109290813 3.306446973933037 0  0.3077461147713075 3.119700563473354 0  4.6796875 4.6796875 0  2.333079012424948 3.845757959077508 0  0.7829771267899832 3.317744656243421 0  1.159100632608513 3.532487125138763 0  0.799066251840424 3.893573750162776 0  1.57326499580282 4.255438189102632 0  0.7309366047093668 0.2991402264438908 0  0.3054777494262156 1.223275888123843 0  4.027475154280377 2.78211326942427 0  2.35270874745988 4.426658168476266 0  3.474236283732569 2.021154281686229 0  4.401414236174444 2.329446628171927 0  3.39403781747337 3.987097102903034 0  1.077524329801934 1.214100792470484 0  4.065611571711903 1.066085524514197 0  2.165399002716117 3.335637450367864 0  3.007639563081306 1.093684039371638 0  4.030818285732145 4.351883315180857 0  3.504115222530889 1.739284194222036 0  1.224503368215566 4.712091441401919 0  3.805634204685714 1.321528442399996 0  4.319233123479386 1.573547993867769 0  1.024007670021325 4.394604704797005 0  3.776400432023095 3.839003324979723 0  2.991819819453308 4.320567175146181 0  0.9782797534072181 2.886406017887129 0  1.763835134082104 0.6602345487826022 0  3.765182288741625 1.631193038541544 0  2.267959593989681 2.345053543725764 0  4.412434895833333 4.168294270833333 0  4.4072265625 4.7255859375 0  2.791493971314009 3.11210833271929 0  3.408766223032414 3.469500900677365 0  1.915147569444444 4.725484476461039 0  2.070301968506271 0.2605666686358055 0  2.767932250651506 1.530295992695836 0  3.280065043173439 1.364863281105779 0  4.45101570110842 2.974157152713635 0  3.521928862999512 2.96990445010402 0  2.552921961347576 4.008414007169315 0  0.2682955376854191 3.657555015841003 0  3.084522868361304 2.310593316718068 0  2.669255823227708 1.939379494498064 0  2.615884629473921 2.238841231570381 0  1.405652091971449 0.8877813821442277 0  3.25151486618811 3.68536115104276 0  1.963741569810629 2.331207252264507 0  4.017297980292599 2.486269171379106 0  3.869168920841219 4.748188103831625 0  3.596868753579134 4.77342723825056 0  2.41262958240343 2.764128584995838 0  1.266750578673391 1.404747710001619 0  1.559243962241121 2.85146506328516 0  3.128799423834764 2.052081657715259 0  0.6770833333333333 0.9778025793650794 0  0.2083333333333333 0.78125 0  1.978224492765132 3.087074731032578 0  4.051448850909273 1.969392119104174 0  1.320577095006813 4.172234780971559 0  3.214261103850064 2.534397293281829 0  0.2635729089754111 1.779234736680035 0  3.510775680035133 4.460728640112889 0  2.603081405968802 0.2432579385496493 0  2.866341315154884 0.6662105505481998 0  3.000919221100777 0.2270278495648781 0  1.298858304121393 2.05917319923859 0  2.020292299736597 1.589794568392338 0  0.7401688396476035 4.470780315741533 0  0.6721783535561408 4.733125588707921 0  3.753712482075402 2.874301339727514 0  3.557348205914658 2.491958694539413 0  1.094565978195436 0.2011034254079851 0  0.9338148378011396 0.6833568465908735 0  2.945530578578538 3.701798332963805 0  3.111707186654356 3.216904195825605 0  1.341791111822685 3.293123262233967 0  1.632939924064587 1.184895891095613 0  0.6335477978936732 3.517393619499591 0  0.5576014611130192 3.210998966942492 0  1.564344196470102 0.3630498725895039 0  2.75362450242839 4.626680495816594 0  3.571304405229554 1.192452351107437 0  3.522934592621944 0.9359134489437148 0  4.453125 3.671875 0  4.765625 3.828125 0  1.055906321410838 4.14310472322957 0  4.795146539102229 0.46875 0  4.767156345199235 0.7178596932040019 0  0.2048534608977711 4.53125 0  0.232843654800765 4.282140306795998 0  0.5393715189906129 4.270810883024032 0  4.329922600274667 0.2750645887059072 0  4.275515096738972 0.5448389557295173 0  4.477747423652795 0.7252838358993123 0  0.2002829820452772 0.46875 0  0.4352678571428572 0.6956845238095237 0  0.5007241582667088 0.2123388122114133 0  4.672890923830735 0.2500902110494848 0  0.4308009280819452 4.783624996516437 0  2.104871305393774 4.438653689007242 0  0.2274454167838428 0.2274454167838428 0  3.446466574593436 0.4359605369011901 0  2.12354112127588 1.217588426759619 0  2.309175236825235 0.7888355970690434 0  2.556178570281936 1.054299163237582 0  0.578683248637
[...]
<PointData  Scalars="f_16-0"> 
<DataArray  type="Float64"  Name="f_16-0"  format="ascii">4.9301295213948311e-57  -1.4412693758490827e-04  -1.8355403455332080e-55  -4.0573082020929812e-82  6.9619222367409272e-27  2.6419582647167402e-66  -3.6564288807387420e-65  -6.7244546621914244e-27  -5.2950284019503580e-39  -5.2284274483283596e-13  -2.2662010479736580e-15  -4.8047864390060392e-62  1.0281953195509588e-42  3.7267028737858637e-61  1.1300815508072708e-40  -8.3110511769124613e-72  2.7508901945277549e-74  -3.3613950294791045e-46  -1.0902908416719823e-43  -1.2543156664005919e-26  9.3314122165316392e-57  3.3529021118557462e-30  1.0485182137180966e-52  -1.2794423141898038e-14  9.4865090129342552e-68  -1.5293106579153753e-36  3.6821353346507332e-35  -9.5895088900358671e-55  -3.4716148861647806e-58  -2.9143365073476683e-50  1.0031651381616468e-53  -4.7899121515207647e-47  -4.2208944916295479e-19  -5.7003668024775642e-62  -1.9644301040662977e-35  -2.8655874372119732e-37  1.5247966853295144e-41  -4.3716034127754458e-31  -6.5001554982925136e-48  1.4350240576035426e-64  -5.2401996895146367e-26  -3.8025311800562653e-59  -2.3163743889268739e-08  2.4935610811607355e-07  -3.6266668361889499e-77  -6.5792266362363164e-77  3.8996244475008821e-28  2.3248325916372943e-22  -1.7260800966830032e-57  -6.5732186220479169e-33  3.1674027196936812e-21  7.4365119634841726e-59  1.7734361649105899e-47  -3.2176302915733808e-65  3.4840765337203125e-19  8.2058401613784285e-36  -7.0828531500952646e-63  -3.9642395758163866e-57  3.8096981075385959e-50  -7.3863838494593316e-69  -6.3699343829749813e-69  -6.1033214340401765e-20  -4.0846040783214558e-49  -1.4549871056064408e-59  1.4564993491995051e-44  3.5044675083262136e-44  -1.2882730540342280e-35  -4.6009189853959186e-52  2.3501846686776175e-54  -2.0799301737940169e-51  5.4066998951246364e-42  -4.0515952693425819e-41  2.1605509314446311e-41  -8.6203843544868314e-10  3.0993873789680253e-14  1.4529502493773950e-19  -2.8614575246815029e-69  -1.7749958075127681e-73  -1.5591734904817757e-67  4.0016463049668165e-33  1.1187858541477887e-07  8.3154825934625949e-31  2.1654413730485134e-53  4.0240345304092436e-43  5.0444981981802477e-48  1.9035987372816359e-56  -5.3500123174827464e-52  1.2875286203767411e-48  3.5955348669831149e-48  7.2191675157923860e-53  1.7629132611320276e-45  2.8775611588194453e-58  1.4142225215221837e-61  8.2509479945741351e-61  4.3309082589818077e-62  -2.6032494806975912e-43  1.3852483070003599e-32  3.1970910734037009e-64  1.5763634252917362e-56  1.5979416857434415e-57  1.3317806258352247e-52  1.7253241544179434e-56  -4.0583543359977939e-50  5.1989710919857350e-45  -1.5939677273637821e-42  4.7109177905752776e-16  4.5837316038208583e-17  -4.2382137241883741e-23  -6.2181563965629346e-61  3.5601603266535675e-71  -3.0052750617741288e-39  3.5299202154034074e-23  8.8133660565565769e-23  -6.3499029908721667e-31  -6.9868039161992434e-27  9.5442110238888303e-31  6.8906855731582343e-35  2.1998654152587005e-55  2.9888600973615308e-62  1.5066254930067385e-48  1.4369392019484508e-31  -1.7242169629209608e-59  2.3378146800827341e-73  2.7050947351911576e-36  -7.8044412118468980e-36  4.4680653301103373e-81  1.1980241091742373e-19  3.6894648569543577e-69  -4.9567401773396737e-63  -5.1521075698647133e-36  3.7083890014976413e-23  2.6461541351968491e-53  -7.1211203545657792e-39  -8.0934920189426068e-40  1.9929891141457054e-41  -9.6298348159499742e-48  -9.3943706625406467e-48  3.7019715340714276e-16  -6.8681135597198956e-44  -7.1733838952852810e-27  2.7401413513481416e-22  -3.8316901405186896e-31  -1.7782887806488365e-24  2.7085404978649205e-28  1.4065157073222574e-69  -2.8554755770685317e-65  2.3060971092245050e-80  3.4505911387825864e-66  -8.9462766188185544e-46  8.9312491644785089e-54  -2.0451967445293580e-38  1.1224159464346211e-10  1.5307205403688083e-18  -1.7506847750529765e-70  -5.4654458333613348e-33  -1.0332765893346002e-39  -3.4584382913757702e-53  5.3990991756818773e-47  2.8233775444659186e-37  -1.5503066882861553e-49  1.3423806720886506e-72  -2.2072121893301949e-56  9.0413943484505714e-61  -3.8205221906760561e-52  1.7463999086709861e-55  6.5861012770650445e-58  7.2515255303340478e-54  -4.9943138260957212e-28  -1.5952441336434537e-23  7.4722295953673482e-32  4.6807151006422576e-16  2.0497690244331876e-16  2.9694636685408262e-57  -7.2992080725215817e-06  -3.3902000092316355e-04  1.9450232547903757e-64  -2.7961460528911667e-23  -3.0696422022306902e-27  1.2455845337512761e-27  -4.9540359675622639e-34  -2.2627939940251412e-52  5.0304829034236346e-47  1.0481218190598964e-62  -8.2414888436375129e-63  -7.7198815905424171e-60  -6.7393077962162102e-61  1.2193488909317477e-68  -1.3818872122747798e-63  3.5483887481981855e-62  5.7103226903293391e-65  -8.7877008513809841e-44  -5.4369147981201364e-59  -2.3917796475071523e-29  -7.4812578022473670e-11  5.9957213809194315e-10  5.7385754875131060e-32  1.0879807648797079e-38  1.9734241653595983e-46  4.3851742487756612e-70  -9.6677194235259016e-75  1.0133784005071199e-59  8.5687128716310003e-37  -8.5499017454644886e-77  5.2019361357021360e-51  3.0696755500522751e-42  -1.8129207698762562e-43  1.8869581956681208e-47  -1.1959627252581527e-53  2.0087921669565998e-10  2.4567809118747771e-12  4.7561339708697141e-57  1.0028176999573914e-58  3.3188221592401611e-46  3.3506406788980389e-57  1.2290946747157486e-58  -4.1748255786850937e-17  -2.8037522542941139e-49  -3.4732252298988048e-44  -1.7770667362661543e-40  4.4789246529227263e-68  5.4201857822517710e-46  -6.2777557780875797e-58  2.0072973995029972e-49  -5.4083243697836689e-55  2.5351103517363792e-54  3.4502369623546128e-61  -5.3928416982687228e-60  2.2110578597513590e-34  5.0406191074115606e-24  5.5786770051889973e-49  -6.4034417032028101e-36  -3.0126374221328687e-70  3.8373880508992400e-74  2.3012279583333839e-47  -8.6541434968665940e-55  -1.3760477756676029e-59  -2.3571147321665801e-26  -6.6706342672836559e-38  4.9489098246781582e-45  1.0586192247511237e-61  7.6958021701613825e-53  -7.5067091348386781e-54  1.7481331363075796e-43  -1.0040805829489487e-43  -1.0649678176719741e-37  3.7659978943785845e-40  8.4498992812377515e-19  -4.1513843360130937e-55  1.4007092967947853e-32  -2.3446173193486810e-56  -1.4299182364846947e-70  3.1531918108194941e-68  -6.3469710641223753e-41  7.1728574535501154e-20  1.0295303249279557e-36  -1.4470671624786629e-43  -2.8324804837477066e-11  3.8282824123230161e-08  -8.0211004707689221e-40  -2.5532840493907439e-53  9.6946737700002693e-51  -5.6076464756026764e-47  7.0402847338628199e-21  1.0934464872708495e-64  1.1907769459832528e-30  3.3370404890379343e-36  5.6549738243131456e-33  9.9884844907222641e-27  8.4493696764244243e-29  2.5799623470202083e-56  9.4513687590209985e-57  -6.4035870790006596e-55  -3.8583016828144094e-50  -1.0297825834852659e-13  -7.3466643938104004e-14  -8.1938344198782450e-54  -5.5043860649976975e-50  -2.0172675848099290e-40  -6.2044832355178203e-23  2.9553761778227317e-43  -1.7375015035160622e-38  9.8442044047392340e-20  -1.0003531860234770e-61  8.3833018030076562e-46  6.9648106031852164e-45  1.9558666537745929e-68  1.0154280469074056e-71  -1.7733654146997342e-50  -8.5435092414565812e-55  4.2651605983060810e-55  -2.0559081838699158e-52  -6.6741392588819441e-50  -7.4798421836721269e-52  2.9448352585749467e-48  1.1191864903988541e-51  -7.4917704300168229e-52  -1.0406768247625935e-04  2.6836283957984300e-07  2.8011882486051191e-07  -4.0459127415168902e-51  3.0392430220913935e-56  -2.8444702887780368e-58  -3.4136574858267008e-04  2.7316863138434693e-40  -1.4597078981340207e-28  -2.3683804828726951e-29  1.7802356938836339e-33  -3.2333902358615410e-49  -7.8570386601099898e-50  -1.1370213300252710e-29  4.2031451454153190e-45  -7.3161424762151140e-43  1.2070270603834928e-57  4.9440204298982840e-61  2.3906821595707120e-75  1.4484765699561430e-16  -6.4047101856850393e-47  -3.4979011388236237e-46  -1.6164317079870865e-41  3.6183653481313449e-63  1.7107105182049271e-47  7.6138410637666922e-44  1.1215079080012532e-20  1.1176052227467340e-41  -2.4644440216101461e-45  9.8368500397003597e-55  -8.2669420273330882e-21  -2.0980525350994351e-59  -4.0237354734799390e-56  3.0253362755651018e-25  6.9787322638853468e-63  1.7264026860020120e-15  -8.4289005858114461e-32  1.6673911065991519e-62  1.3927893986749984e-64  1.2069889899654868e-46  -1.3250022921151015e-64  2.1422326879620326e-34  1.0095042791724805e-30  -3.7332047769174185e-66  1.4306542443070545e-61  -2.8947791974883538e-29  3.2420931488501646e-36  -8.6207996622041490e-44  -2.3617800553410088e-65  -2.6467635259036260e-41  -1.3774582988448932e-67  -6.5359825823664897e-60  1.1471058195116531e-41  2.0658533555083971e-58  -2.1589359875928738e-34  2.7328901013885917e-16  1.3838808783156705e-15  2.5654173193242888e-13  5.0946644677674990e-42  -1.3784437847864208e-38  -9.3647183663451223e-26  6.3353643391390807e-66  -1.1577256025072297e-63  6.2955724622480209e-64  -7.8690817199886270e-56  5.7616096384253847e-80  4.3131586862967585e-58  -1.1576720327314404e-59  -2.5035150045337675e-36  4.9135932930997925e-74  1.4847981791780782e-37  1.8583733154848528e-61  1.7921705133460415e-51  1.5556843536935341e-49  1.6056975066993404e-42  -9.9431732023852738e-34  -1.4951012610795947e-13  7.5339743947627388e-71  -2.2617474224124571e-50  -1.9753779382422741e-34  -1.2269766417493125e-35  -4.9026180821326523e-66  4.8452308350132095e-24  -1.0298177448738782e-26  1.2017086451732494e-24  6.4876138487480051e-29  4.7409427865602779e-51  1.0123015087807691e-34  3.7341607143620993e-47  -2.4764291952360563e-42  6.1600035028221148e-52  1.6244039252961855e-55  -1.8032635898609555e-60  1.3874945573455218e-39  1.0053949620243925e-31  -1.3745857315974332e-18  -6.1360411605870640e-56  -2.4451458301380093e-20  -6.9398711613302907e-28  2.4924512461202238e-67  -1.1420668182795883e-44  5.5488090883183324e-40  2.2097966155003707e-65  -9.3818121581011809e-36  -5.3534254595687392e-11  -2.8869944122344408e-21  -1.8425799484288495e-52  -8.3073209799393467e-57  8.0178267221268842e-45  8.6336381637697752e-56  2.3182241176306963e-65  2.8947758215169474e-38  2.6712709629597951e-22  -4.9151471905415329e-54  1.0183563363090969e-31  -5.5659845421050483e-33  -1.3348444822283036e-33  1.6728575636315965e-52  -1.5854184283331798e-41  -5.1862512403317958e-37  7.2598486330277063e-52  1.7978010076341742e-16  -3.5462953297635746e-26  1.2369926340290210e-60  7.1089257304762265e-37  1.7055858329651449e-53  1.2003303870524214e-60  -1.1540082087901470e-62  -9.3883244912675103e-34  6.9539922175720964e-29  8.9929116113875939e-46  1.3108525804146123e-54  -4.4741881989992881e-62  -1.3475141882585840e-63  -2.5720148056864916e-17  -9.0935486247154066e-41  -2.1740736133352618e-60  -7.3167829051398461e-56  2.3554765531585072e-47  -1.6334014338061421e-30  -2.8979018993834554e-49  -7.7112622023094228e-31  -6.5888996252168441e-58  -4.8740774363002414e-19  3.7055220882453738e-57  -5.1286478376086359e-42  4.8315479315033007e-32  8.0214431726713128e-43  4.0030530519179528e-77  4.0543354532044586e-25  -4.9929484875542637e-53  -2.6521491103307637e-38  -6.6547316706920030e-23  -2.2363882683354610e-50  1.3101199028787420e-45  2.2696746103402295e-24  3.8111698113192738e-61  1.1830081557530194e-70  4.4314864731932649e-59  -1.1064407895800112e-62  -4.9778200902716199e-29  6.3308483801081767e-18  -3.6848593713026573e-40  -1.1091785142442347e-17  -9.6897955184716943e-52  -9.6445558772239512e-41  -1.5110225992607272e-29  -2.0753841918310692e-45  -7.9879210341823389e-47  2.9978781861959135e-34  -3.4854715679996979e-57  -8.7335254137368885e-23  -1.5940714479743776e-40  2.6128992022041670e-14  -1.8347281509634499e-43  1.8123901185093410e-21  1.0176608738497062e-26  -8.5522772911535381e-29  1.0297503776368988e-33  8.5815761391989720e-33  2.3876781706889582e-49  5.8733578662950784e-51  4.8025121583871576e-47  -8.3912669602163505e-13  -2.9434236484993660e-60  4.6135264857402256e-69  5.9849911407645310e-73  6.2129609674283323e-58  -2.1714928878391390e-29  -6.7890038131314271e-69  -6.8627903658432133e-21  4.4997520920615064e-26  -2.7579274436410151e-31  8.9673718392249169e-53  2.1465571154271333e-37  -1.4680221131837330e-36  -4.6372388606391419e-62  -2.7296997945514913e-42  -3.8463273775899272e-64  1.0098475738065150e-63  -9.5587033060092544e-53  3.1390985479401534e-64  1.6003547881580954e-45  -1.6218517350247455e-69  -3.2031574857826993e-50  -7.5287225917321253e-45  7.8325377208057525e-38  -4.1123920088445864e-09  9.6690713663547503e-59  3.1323854852118634e-57  -8.8962685434684385e-61  1.7889457668942370e-23  -6.0171812552241605e-47  4.6695782271648137e-44  3.5415931875484359e-48  -7.9560343320748800e-72  4.0200116718985587e-25  1.2749938245223769e-55  4.5855846900646129e-27  -1.0179695241040669e-24  3.1011484888733188e-53  7.2598918154896045e-41  -7.5408694047626251e-49  -4.2759316836607293e-60  2.8735134833776160e-59  -1.5805257774394247e-26  1.3061765015028927e-20  -5.5593794670220755e-41  -3.4598718175790741e-59  -4.3769151537616125e-54  -7.3899622700696821e-47  -1.3325812072149080e-47  8.4824014388161408e-49  2.6255587919687587e-58  5.8279460933349859e-46  7.5560437341957005e-65  -2.4425627125550572e-52  7.8513178598689079e-29  9.8339464122882271e-61  1.2590316798525549e-55  -2.1446615237105702e-53  -1.9474486334583527e-51  -1.1470049798482943e-70  3.6445566990594029e-70  -1.9784111309463863e-67  1.5986718967233352e-54  -3.2597542901715740e-56  -4.6080590077528618e-50  3.2344893591305704e-25  7.2269172660242185e-27  -1.1922948366219657e-43  2.8187579611341667e-64  -2.1097639615471235e-69  1.1283382727368335e-48  -5.8860959490023218e-75  -4.2940814517759525e-73  7.2561389509724284e-37  -5.5567204778722334e-41  2.7236980347314276e-53  1.5570980845764326e-51  1.9618769619017208e-44  -1.2431539605624670e-24  -3.1772901492573730e-59  3.7673364215727598e-58  -1.1105754427617262e-50  3.7352352677337777e-09  5.0372868937156218e-11  -4.8505600689308821e-12  -4.0182896399534803e-49  5.3238924419196561e-54  1.4048498179838331e-53  7.0063508306479795e-18  -2.4459261628340640e-60  -3.0796464851575278e-54  -2.8615685922777662e-35  2.0021442788713204e-44  3.4153278702250685e-57  -1.3639882622819322e-78  9.5056437162386320e-48  2.2236330182356420e-67  1.3574715276443160e-72  1.4250340619210948e-17  4.3235085040524836e-35  -2.5148963030773727e-46  1.3743359709411624e-59  -2.1833407025006871e-63  2.5470618169980751e-45  -5.4359175629881657e-58  3.9367078380558574e-15  -1.5535360028216212e-42  2.4078330683254394e-74  2.2074368249968039e-40  -1.3816037097344903e-22  6.7196070618274912e-34  -1.5789879048459182e-54  6.3086130357008854e-31  7.6110094147251866e-37  7.2989209431108838e-29  3.3582711009720476e-61  -3.0556982039570804e-50  5.7376083553178282e-10  1.5071265655267025e-33  -7.1544488417568436e-19  4.0236925955267416e-16  1.5367767075622577e-18  4.7736257335428092e-14  3.3803649321379753e-14  -8.3161158419299874e-63  2.3666458089139568e-65  1.5776419549016247e-42  -1.7791677801683498e-38  -1.0235227254002743e-39  -1.6617858651361112e-34  2.8562394057272595e-06  -2.3869786931317484e-57  3.9209135138186945e-61  -2.7566044836880760e-23  1.3291681566589246e-66  2.7668553788008199e-54  -1.0753118283384297e-69  3.7166800588897881e-53  1.2675703691243129e-70  2.5679503352316650e-30  9.2888078787516344e-63  -1.6322854795542998e-39  -6.1576577182943406e-61  -7.2209515219228800e-61  5.5409055256142134e-05  -4.8204943394764631e-02  5.6130490333413490e-66  -4.2943074844777221e-28  -2.7755689733879515e-75  -3.5005806511319868e-05  2.0090433519699020e-48  1.3085456700666197e-56  -2.6249705747635039e-21  -1.0568051167515988e-22  -9.8274243510117044e-46  1.2005406690149517e-59  -2.3032235247342860e-41  -1.1619939276863632e-27  -1.6198879015692230e-73  -9.6120269242262480e-10  1.4118733385694867e-48  3.0297319181055146e-47  8.2909031364182442e-25  -1.4237465226905598e-58  2.9383371343276283e-14  -1.5044342020078642e-40  -4.3662739672066183e-54  4.3838350931196588e-51  7.1861907264420296e-48  1.1378158112078446e-67  6.2018108380505362e-39  6.5491664504129618e-50  -1.4104501503161670e-34  2.3311016127625014e-50  -3.6804849662885549e-57  3.4698232626763185e-62  4.4482662708227355e-64  1.4923807954812670e-49  -5.4958819331574813e-29  1.0025856369624914e-64  4.1834979838494924e-67  -5.9081449792441856e-26  -2.3634230902525403e-77  4.4876467914904397e-62  3.8571580312684219e-75  -1.6016475916371692e-55  -1.1799970693356377e-58  3.9210812357254663e-65  8.0934176052228891e-38  -5.0298863574565031e-61  2.1551550486594521e-70  4.0132798470393189e-38  -2.3583369085913269e-35  -8.2699394796536741e-65  7.6647687862311200e-67  1.0833813407251910e-68  7.9112514368714540e-22  -4.1543949969063258e-25  2.1680179688620276e-29  -8.7571807418057001e-65  1.8798347181766766e-15  8.0805781898773568e-20  -3.1362481979138414e-42  -9.9613276545850636e-44  6.1942515900690693e-59  3.3471282095974240e-07  -3.1763134432841362e-52  2.5309117125094637e-56  3.4802895415981207e-13  1.2535146847985662e-31  -3.4069588450845569e-05  -3.1349360537187336e-08  -6.2869180712752178e-73  -9.6494414079153983e-79  1.1879893290480579e-82  -2.7720884746571682e-80  1.4690295229910036e-33  -7.5445586027369153e-68  2.2891192290951324e-11  -7.6576097630172488e-72  1.1829775116586070e-75  -5.4553492738550717e-58  -1.0147798819498642e-48  -6.0912202132178903e-59  2.5263731124237582e-43  -5.6732438483186238e-59  -9.4329631071560002e-39  4.0093781951126098e-63  -6.0903859633350381e-18  -7.1194302541753933e-18  6.9964303320792093e-15  -1.2160202819337489e-66  2.8970079111594095e-11  8.6750198540444595e-26  -1.8537068656206411e-13  -2.2095073540731872e-50  -4.6063197958141509e-33  -1.1046400328504959e-29  -5.8723612385415365e-55  1.5782467635824581e-34  4.5047282360414726e-36  -1.5272577855443348e-39  1.0476505881574971e-30  2.0054392514295752e-15  9.8025255734340753e-12  2.1164292286541977e-59  8.1879242516354633e-55  -1.7354123447728324e-50  1.7826869578268993e-57  1.4469246118784129e-20  -1.3225405960975664e-66  -1.6700284714185411e-36  2.3526605202147230e-53  2.6181244762349512e-34  -4.4037114738586453e-21  -5.7801580315819141e-45  6.2809333624037755e-50  -1.7705817784552754e-37  -7.2910036698345413e-28  1.2625765884944998e-30  -1.0151778033129236e-44  4.9003821514398231e-61  1.6757523013080327e-21  -5.9347985845992530e-58  4.6313952323063956e-56  -1.6344925067602883e-37  2.4869038157992184e-46  -8.5278121171014775e-24  5.3478358799493469e-50  -5.8086485670247874e-18  1.3730850056430825e-63  6.6215370471203860e-41  -9.9503142358648659e-42  -1.9913921508999489e-61  4.6440536977832298e-55  4.5366574383773511e-55  6.3341216542967688e-59  1.1240427408843991e-57  4.7607850851000159e-53  -2.0855098553867841e-32  -3.5902957441611412e-55  -1.1817029513394824e-43  -1.4327121016084296e-34  3.6521305010987094e-46  1.2963735965072783e-47  9.6468347115579965e-64  7.7730581739692087e-42  7.3057302641414597e-47  1.1611810484840995e-47  8.6861772708974707e-51  3.5959422136961080e-52  7.9777562152576403e-39  -5.7416479079957473e-39  6.7457250814222948e-43  2.0731846355494926e-35  4.4978415344239446e-51  -2.2363263304831098e-59  4.3600937623946570e-61  -2.0804142171707525e-54  3.9445329117302262e-52  -1.3287357900971211e-55  1.3417988233069756e-64  5.1800253463948144e-48  -8.8187312510052385e-35  -3.7174595376202662e-63  2.6175231294824668e-62  1.3730100001873361e-59  8.7833119003479089e-44  2.9700689821851184e-36  6.6145701741792442e-27  2.6369801196974681e-47  -9.9587127106846568e-46  2.5271623830347607e-25  2.6790301177552870e-32  -2.0933266250127586e-69  1.6202969473320188e-19  -3.2304229871171734e-45  6.6749896808896861e-68  3.0710328656063824e-67  -1.3304304040868841e-73  -3.0830604966060718e-53  9.9393141152520650e-58  1.9455320468198822e-35  4.7414506197080665e-48  -5.8815638944559375e-43  -2.4047249300338837e-31  1.7908810462927236e-57  -2.3717910631329721e-61  -1.8742084324836426e-45  1.9963119127593525e-53  5.2439679884413899e-31  -2.8835007055588658e-43  3.4824019860559091e-34  1.4553232244654700e-32  -1.4069222816933250