<?xml version="1.0"?>
<VTKFile type="UnstructuredGrid"  version="0.1"  >
<UnstructuredGrid>
<Piece  NumberOfPoints="6486" NumberOfCells="12696">
<Points>
<DataArray  type="Float64"  NumberOfComponents="3"  format="ascii">0 5 0  0 0 0  5 0 0  5 5 0  2.5 0 0  5 2.5 0  2.5 5 0  0 2.5 0  2.5 2.5 0  0 1.25 0  1.25 0 0  1.25 5 0  0 3.75 0  5 1.25 0  3.75 0 0  5 3.75 0  3.75 5 0  3.541666666666667 1.458333333333333 0  1.458333333333333 3.541666666666667 0  1.875 1.25 0  3.75 3.125 0  1.284722222222222 2.326388888888889 0  2.683189655172414 3.767959770114943 0  0.9375 0.9375 0  4.0625 4.0625 0  0.7252209595959597 3.026357323232324 0  2.763480392156863 0.9129901960784315 0  1.875 4.345238095238095 0  4.345238095238095 1.875 0  4.192708333333333 0.8072916666666664 0  0.8072916666666665 4.192708333333334 0  3.368055555555555 2.326388888888889 0  0.6837606837606839 1.738782051282051 0  3.285485245626782 4.324328415208927 0  2.551239698778062 1.693130150610969 0  1.827256944444444 2.868923611111111 0  3.464875022477093 0.6813924607921316 0  1.942880513719175 2.059558626187995 0  3.04563492063492 2.971230158730159 0  4.375 3.4375 0  2.13639445139758 0.5994472256987903 0  4.272228422619047 2.606956845238095 0  0.625 0 0  0 0.625 0  5 4.375 0  4.375 5 0  0.6400043240752655 2.384646170113389 0  1.347691225855598 1.660875475110776 0  3.515783617857982 3.723905460714006 0  3.125 0 0  1.875 0 0  0.625 5 0  4.375 0 0  5 1.875 0  0 1.875 0  0 3.125 0  1.875 5 0  5 0.625 0  0 4.375 0  3.125 5 0  5 3.125 0  1.489644181965304 0.6007147273217681 0  2.054597701149425 3.742302955665024 0  2.662520990197781 4.39452575763237 0  2.415835363784578 3.165530021913244 0  0.8679986894865213 3.602373689486522 0  1.267459753787878 2.886186079545454 0  4.099702380952381 1.365327380952381 0  1.316964285714286 4.438244047619047 0  3.7915135293491 1.959691594758709 0  2.875141124191255 2.118761176511833 0  3.00418010501169 1.397414179299248 0  0.4081721322167092 3.410647930198662 0  0.4166666666666666 0.9375 0  1.014190407998288 0.4422301359994293 0  1.383260571305984 1.162718286082048 0  4.53125 3.90625 0  4.453125 4.453125 0  3.772848162504192 4.48678272083473 0  2.8125 0.404329517041716 0  0.4538690476190476 0.4538690476190476 0  2.305461739347387 1.04517007574828 0  3.771263799175824 2.624190260297553 0  3.229617768018734 1.809956994202883 0  3.780190884441317 1.025307111692601 0  4.646337365591398 0.9375 0  4.537623451379149 0.4609485750426037 0  1.200477888421151 3.934852888421152 0  0.3536626344086022 4.0625 0  0.4623765486208503 4.539051424957397 0  4.0625 0.353662634408602 0  4.560525106689535 1.390989100915847 0  3.958439078571988 3.619844539285994 0  4.672619047619047 2.1875 0  2.1875 4.672619047619047 0  1.862808494877602 3.325947624431087 0  0.3268135998175443 2.8125 0  4.674181280189791 2.8125 0  2.283233994935276 4.138623547175983 0  0.9375 4.677879119362977 0  3.08488061581743 3.469889594488945 0  3.113427375573758 3.913955730709506 0  1.652847799068813 3.950848935641292 0  2.932652662909449 2.550542739521724 0  3.311350648514189 1.088831994878698 0  0.6770833333333333 1.295851139601139 0  0 1.5625 0  1.047214787840024 1.96818092308125 0  4.183331482095785 3.03958703580843 0  3.4375 5 0  1.071307777252521 3.246275861010018 0  0 2.1875 0  0.386576856303419 2.03125 0  1.713862716483534 2.439783116849799 0  1.775396256975935 1.665976816304977 0  2.231236976948428 1.443917394671254 0  2.373900732409897 2.086930260150635 0  4.114918237574474 2.221646174618671 0  3.661302567757379 4.099620139144836 0  3.378215938602977 2.734494874063393 0  0.9842097536079312 2.597286741306247 0  1.642795138888889 4.672619047619047 0  4.0625 5 0  2.099458800960004 2.567446522665629 0  2.616202751603346 1.297895893940078 0  5 4.6875 0  0.9937554350075428 1.512592975947215 0  2.8125 5 0  3.002695327068194 4.614055254615477 0  3.205627424097207 0.3852436382721472 0  1.678616581261621 0.927556612265266 0  3.365326698305438 3.196943731162083 0  1.554834936170314 3.120009882655813 0  3.108408340729323 0.7797187795784133 0  3.684368918102174 0.3728877601163941 0  2.716214835303553 3.39276351922003 0  2.37718583984784 3.551973401560441 0  0.3750662445374837 1.52191994866787 0  2.679073487930202 2.844160731602957 0  1.557635869750078 1.991068682985722 0  1.812595698561088 0.3839273018252746 0  2.512014721281916 0.6320641118792227 0  2.1875 0 0  2.349973454443689 0.3189980586887866 0  4.6875 3.59375 0  4.636052949022233 3.178355898044465 0  4.6875 5 0  3.345485909784306 4.665765449101383 0  0.536727472389443 3.749603193819277 0  4.349541499640203 1.116201826262156 0  2.886559045931982 1.774013674579691 0  0.6770833333333334 0.7142857142857143 0  1.5625 0 0  4.120842096538671 4.628726497527622 0  2.176157474177018 1.793470423744689 0  2.175650736889416 2.909863021769539 0  4.036616464259081 1.709699085170981 0  3.887974623473683 0.6492597046022868 0  3.4375 0 0  3.70675699592552 2.289666624772415 0  4.697265625 4.208984375 0  2.815177577303495 4.085937578239174 0  4.672619047619047 1.730733296184288 0  4.6875 0 0  5 0.3125 0  0.3125 5 0  0 4.6875 0  0.3276089296588581 2.484526834811734 0  0.712433309515852 2.065138854645612 0  0.6376435912223634 2.711473454001295 0  1.184991292170422 0.7222504400947201 0  1.31884329779317 0.3206944232264773 0  3.683609198994263 3.44428698533042 0  0.3125 0 0  0 0.3125 0  4.231797269642997 3.789141808928991 0  1.564375596050781 1.425998687184973 0  2.007640894175573 0.9032106925568466 0  0.955125897558294 2.276666098587227 0  1.43898735721003 2.611310720271951 0  1.954491523717513 4.040700257877075 0  1.752947649777421 3.652439445419346 0  2.509575750247638 4.678021307664052 0  4.687194709705067 2.499965519538002 0  1.5625 5 0  0.9375 5 0  5 2.8125 0  2.1875 5 0  5 1.5625 0  5 2.1875 0  4.0625 0 0  5 0.9375 0  2.8125 0 0  0.9375 0 0  0 0.9375 0  0 2.8125 0  0 3.4375 0  0 4.0625 0  5 3.4375 0  5 4.0625 0  4.010848109290813 3.306446973933037 0  0.3077461147713075 3.119700563473354 0  4.6796875 4.6796875 0  2.333079012424948 3.845757959077508 0  0.7829771267899832 3.317744656243421 0  1.159100632608513 3.532487125138763 0  0.799066251840424 3.893573750162776 0  1.57326499580282 4.255438189102632 0  0.7309366047093668 0.2991402264438908 0  0.3054777494262156 1.223275888123843 0  4.027475154280377 2.78211326942427 0  2.35270874745988 4.426658168476266 0  3.474236283732569 2.021154281686229 0  4.401414236174444 2.329446628171927 0  3.39403781747337 3.987097102903034 0  1.077524329801934 1.214100792470484 0  4.065611571711903 1.066085524514197 0  2.165399002716117 3.335637450367864 0  3.007639563081306 1.093684039371638 0  4.030818285732145 4.351883315180857 0  3.504115222530889 1.739284194222036 0  1.224503368215566 4.712091441401919 0  3.805634204685714 1.321528442399996 0  4.319233123479386 1.573547993867769 0  1.024007670021325 4.394604704797005 0  3.776400432023095 3.839003324979723 0  2.991819819453308 4.320567175146181 0  0.9782797534072181 2.886406017887129 0  1.763835134082104 0.6602345487826022 0  3.765182288741625 1.631193038541544 0  2.267959593989681 2.345053543725764 0  4.412434895833333 4.168294270833333 0  4.4072265625 4.7255859375 0  2.791493971314009 3.11210833271929 0  3.408766223032414 3.469500900677365 0  1.915147569444444 4.725484476461039 0  2.070301968506271 0.2605666686358055 0  2.767932250651506 1.530295992695836 0  3.280065043173439 1.364863281105779 0  4.45101570110842 2.974157152713635 0  3.521928862999512 2.96990445010402 0  2.552921961347576 4.008414007169315 0  0.2682955376854191 3.657555015841003 0  3.084522868361304 2.310593316718068 0  2.669255823227708 1.939379494498064 0  2.615884629473921 2.238841231570381 0  1.405652091971449 0.8877813821442277 0  3.25151486618811 3.68536115104276 0  1.963741569810629 2.331207252264507 0  4.017297980292599 2.486269171379106 0  3.869168920841219 4.748188103831625 0  3.596868753579134 4.77342723825056 0  2.41262958240343 2.764128584995838 0  1.266750578673391 1.404747710001619 0  1.559243962241121 2.85146506328516 0  3.128799423834764 2.052081657715259 0  0.6770833333333333 0.9778025793650794 0  0.2083333333333333 0.78125 0  1.978224492765132 3.087074731032578 0  4.051448850909273 1.969392119104174 0  1.320577095006813 4.172234780971559 0  3.214261103850064 2.534397293281829 0  0.2635729089754111 1.779234736680035 0  3.510775680035133 4.460728640112889 0  2.603081405968802 0.2432579385496493 0  2.866341315154884 0.6662105505481998 0  3.000919221100777 0.2270278495648781 0  1.298858304121393 2.05917319923859 0  2.020292299736597 1.589794568392338 0  0.7401688396476035 4.470780315741533 0  0.6721783535561408 4.733125588707921 0  3.753712482075402 2.874301339727514 0  3.557348205914658 2.491958694539413 0  1.094565978195436 0.2011034254079851 0  0.9338148378011396 0.6833568465908735 0  2.945530578578538 3.701798332963805 0  3.111707186654356 3.216904195825605 0  1.341791111822685 3.293123262233967 0  1.632939924064587 1.184895891095613 0  0.6335477978936732 3.517393619499591 0  0.5576014611130192 3.210998966942492 0  1.564344196470102 0.3630498725895039 0  2.75362450242839 4.626680495816594 0  3.571304405229554 1.192452351107437 0  3.522934592621944 0.9359134489437148 0  4.453125 3.671875 0  4.765625 3.828125 0  1.055906321410838 4.14310472322957 0  4.795146539102229 0.46875 0  4.767156345199235 0.7178596932040019 0  0.2048534608977711 4.53125 0  0.232843654800765 4.282140306795998 0  0.5393715189906129 4.270810883024032 0  4.329922600274667 0.2750645887059072 0  4.275515096738972 0.5448389557295173 0  4.477747423652795 0.7252838358993123 0  0.2002829820452772 0.46875 0  0.4352678571428572 0.6956845238095237 0  0.5007241582667088 0.2123388122114133 0  4.672890923830735 0.2500902110494848 0  0.4308009280819452 4.783624996516437 0  2.104871305393774 4.438653689007242 0  0.2274454167838428 0.2274454167838428 0  3.446466574593436 0.4359605369011901 0  2.12354112127588 1.217588426759619 0  2.309175236825235 0.7888355970690434 0  2.556178570281936 1.054299163237582 0  0.578683248637
[...]
<PointData  Scalars="f_16-0"> 
<DataArray  type="Float64"  Name="f_16-0"  format="ascii">4.2350995411099502e-37  -6.1415678055030876e+04  3.8518682791562173e-33  2.5374191048520360e-56  7.0105266785733172e-13  -1.5657056735853609e-39  1.1204377671669891e-41  -3.5903523114925131e-13  -1.4381581874827480e-20  1.0954944537333972e-02  4.9213125654437265e-05  1.1601763254365839e-40  -4.1922393585662886e-26  -6.0003004486833042e-37  -5.3193202273414952e-22  -1.6480396242202121e-47  2.8333757804061861e-48  -8.4959836442130543e-27  4.6204362324264927e-25  -1.1676629058575013e-10  9.1298403490267874e-33  1.2393577679192333e-16  -1.7256927554357617e-31  -2.9267224347687018e-04  -2.2044852449357367e-43  -3.3977860730648396e-19  8.2502607293308426e-19  -5.8857288198182353e-34  6.1620254294143351e-36  1.3646629904620005e-29  8.7073587691759751e-32  5.3849054176498944e-24  -1.7917927957249482e-07  -1.6833169104368076e-40  -7.2786728706590777e-17  -4.4460572400818304e-21  4.0197012219359885e-24  8.7661638750849444e-14  9.6674279228737601e-28  -2.1275117693692849e-39  -3.3771187303273979e-13  -1.3530019393758460e-33  6.0206699403815156e+00  1.3883540889132775e+04  4.1371666474808230e-52  7.1864390915377722e-51  3.1207200384106593e-12  1.7311618459137917e-09  -9.7568150245883831e-36  -1.2079776433383049e-18  -5.0564373941397618e-10  6.0000227742674015e-40  -1.8381745779593386e-27  -3.5718763647576661e-41  1.3322392079752087e-08  2.8451250117821735e-20  6.7928599428592820e-40  -2.5642082000745723e-35  4.6660778227918706e-32  -1.1614333270912222e-44  1.9572679899647094e-42  6.2217144708558307e-08  4.0352786537248583e-29  -1.1003655087446429e-36  -5.2483809921793882e-25  1.2935432168390157e-25  5.1157461082493858e-20  1.2684481123275883e-31  1.9805433684962503e-35  -1.6804570383256817e-30  2.7220718746764916e-20  3.0942075940047608e-23  6.8654878072644167e-24  -1.1167473507653332e+01  -8.3664969819388895e-04  -8.8210317620318837e-06  1.2399953295355960e-46  1.6175167503837362e-48  -9.9518439647085333e-44  1.7631328208508690e-17  1.1544210535972668e+02  4.5312160799163478e-15  -1.0812698733571500e-30  -7.5034372835573701e-23  7.2606029376693816e-29  -1.7944998087630491e-32  -2.4317947615264420e-32  -4.9598751286825694e-30  3.0205579557896873e-30  7.5708185924253657e-34  4.7860809014939723e-28  -8.2902641342311408e-36  -8.7600071438978362e-38  -1.0381106641883600e-36  -1.3634321880518081e-38  -1.4563171117532865e-24  2.1261681133797589e-17  -5.1439560293734003e-38  3.8103861309253806e-33  2.2235586482357961e-37  -3.9905743298082066e-31  5.9240238073080818e-35  -1.9301954089926840e-28  1.0021942322450574e-23  2.3910245409293737e-23  4.2259881743349963e-04  3.3569666601130602e-06  1.3415735833243497e-11  4.5753368394725867e-36  2.4974295727682175e-47  1.7986951107604367e-22  6.3398387088084397e-11  -7.9978085852013766e-09  1.9050786048868578e-17  5.5708546464331899e-11  -7.4847770825068862e-15  6.9036705611449642e-18  3.3144705151914461e-31  4.2345945332919969e-39  6.9373049294202712e-27  -1.0314672305802529e-17  -3.9402678337210533e-36  -2.6838641303489411e-48  -3.1054161050157603e-19  2.6861393035813725e-18  -1.4432070831296449e-55  4.1347338873601030e-08  -1.8794341955723128e-43  2.1038551769671294e-40  9.3352079383942671e-20  2.8722461149218497e-09  -1.2287807187233720e-30  -7.9520134906611852e-22  3.4615408963806123e-22  -9.0599495383965139e-23  1.4202141200321698e-28  -2.8116394449794000e-28  -7.0834246605645096e-04  1.9560713218440410e-25  -6.7166415568154162e-12  3.2246405892947783e-11  4.3071837824892129e-16  6.0423183995932533e-12  -3.4317520236286466e-13  -4.2659989360824620e-44  -7.9535241970144964e-40  1.5119960149247723e-54  3.4182636210985583e-43  6.9785131076829686e-28  2.7522105290523322e-33  1.3255311822568448e-19  4.3864705377934876e-01  1.0507262205024465e-07  2.0223481637417000e-47  2.0400099032590515e-13  -1.7531538672666984e-21  -7.0193423648752787e-32  -3.9858114163063647e-25  -5.1224679577581514e-22  -3.8965682195314832e-26  -2.5515201261988716e-48  1.4587824708271589e-34  -9.5893064692890906e-39  -2.5696922665371512e-30  -1.3577469243599130e-33  2.7330053379482037e-37  2.2109177238623734e-34  3.8474403681628311e-14  -4.7284051795084192e-11  -2.2153515451783426e-15  2.1832398376709849e-05  2.4094666762429856e-06  -1.8422509284433428e-34  -3.7678928384447986e+03  -1.0552590385053754e+06  9.0961414763297860e-42  1.3748459272288342e-08  -6.2708966134694891e-13  3.6706620482163563e-15  8.1787882104742105e-18  4.8178544209293863e-32  -9.1838708056512569e-27  3.3184781054483676e-40  1.5801156505784021e-37  2.8814824416405880e-39  4.2016435125148879e-40  8.1473626504965170e-41  -1.6299139534637278e-41  -6.9579859019638452e-40  1.3560986927638278e-40  -7.7663890672940319e-25  -4.5888200201260913e-35  -6.5540845071819074e-15  9.5127407678198481e-02  -5.4583360100585772e+01  -4.4829836014588959e-17  -3.1863109471070717e-22  3.7541219082355175e-29  -1.7491729603186850e-45  -8.2143563381745226e-50  -9.3227386672738073e-36  -6.1800469176118143e-21  -1.0037943806675526e-52  -1.1610782220381500e-29  1.4284651068054970e-22  1.3696794646945866e-25  4.7834299811966064e-29  -1.0293217768606237e-32  2.2131080754017138e+00  -1.3334731314740683e-01  -6.7531475048923355e-33  5.6932695644111474e-37  6.9734165529802203e-25  -8.4601591129017481e-33  1.3356646894508087e-36  -4.6840004979743454e-06  -5.4354592321806773e-30  6.0809135616478406e-25  4.2931144033952703e-21  -1.2631408771439843e-44  -7.8082001727484106e-26  -2.7164933412376316e-37  -3.8370850030876473e-29  -6.5889347935369682e-34  -1.6521376418960312e-33  2.5727388241298428e-38  -4.9776811857463555e-38  1.6950462880801145e-18  1.1073257590373713e-10  -7.6189127887422470e-29  -8.8957156724189200e-19  1.2336299512302024e-45  6.2934282422410903e-51  1.9905886287696279e-27  -2.1533287488941932e-33  1.7994265672701488e-37  4.3310011861839652e-11  1.7164924001481443e-18  -1.1313668020604631e-23  7.4392175724940420e-38  -6.6691718413730392e-30  3.1852601727722885e-32  1.2921423169117614e-25  7.4114594374413722e-23  1.0173654073008962e-17  7.8038654619849578e-20  -1.3878422395332772e-07  7.6304903504229113e-33  -3.2828029850759485e-18  7.4468947749827078e-30  1.3270352909465141e-46  4.2754406898137713e-45  -1.1514978556936781e-21  4.2220915918443253e-06  -1.2776851174684941e-20  5.0912453189227082e-22  4.9701247064611299e-02  -5.7774330080834332e+01  -7.6342170545528313e-22  9.1809795831876257e-32  1.7731020464037632e-33  -3.2263649430699967e-25  -1.4106538366559170e-07  -1.3618970760359124e-42  5.0407396583851907e-15  3.5287983277940247e-19  -2.6260798174633242e-18  -7.7911306609256391e-15  5.1483997236401967e-12  -3.8996966817067121e-34  -2.2204673954787789e-37  1.9784139890230021e-30  -1.3190040897658344e-26  2.2802255302834728e-03  1.7833625034055568e-04  -1.0849847046841178e-31  -2.0722161024332649e-29  -9.7235077105349260e-24  -6.2376894587346505e-08  -1.3214001277946725e-25  -2.1312409045002007e-22  -8.8929659843682915e-08  1.9319176977561245e-38  4.5798809671713723e-26  7.4248471151768734e-26  -8.4555127459299886e-43  -7.9944201894420953e-47  -1.5489045454057996e-33  -2.4198053156241556e-35  6.0177377822695850e-34  -1.8460628374556818e-33  7.4976455691146893e-31  -1.4200737054519913e-32  7.6993280603760521e-28  1.4026362818306153e-28  7.1975648897008845e-30  -1.5156397190270637e+05  4.3699613000060388e+01  1.5943513976170907e+03  1.3129288244612276e-30  -1.2180498889923668e-36  -1.3468350625709295e-36  -3.2519920592544350e+05  1.2353043324193301e-22  -6.8046618411253247e-14  1.8926687200979956e-14  -1.0853896536619813e-20  -2.2847398456816197e-30  -1.9105386826201665e-28  -7.8176757312579512e-15  -7.6791748324934479e-28  -1.3526379627982289e-24  -1.3368430865225307e-35  -2.5204011370556467e-39  2.5171490994394932e-51  3.6257076119411386e-07  5.8355555752569170e-28  1.8282101390091865e-28  5.2556653569039842e-22  -9.9340634759454355e-39  1.7611767209438269e-26  -3.0983851611984197e-26  5.1944293487096210e-09  3.2294616308851682e-24  -7.7777752101036611e-27  9.8764197749224374e-33  -5.7788103392923835e-09  -2.6951536178971121e-36  2.1228991326341298e-34  -8.7077766658254894e-12  -1.6135915407417260e-38  -2.5659077193834697e-04  -1.3251737233101765e-16  1.0269174421515378e-38  -3.3633800361890803e-40  1.8114296352749307e-27  2.3628456849555079e-41  -7.2519584851086564e-18  -6.3195660815795608e-16  2.6401663904115717e-40  -6.5547434337852842e-36  1.6805914052437025e-13  -1.6134099814483222e-20  -2.3827265441085106e-24  -1.8192221358156956e-41  -1.6128496745442411e-21  -8.3338640406805296e-42  -4.3387681503369764e-38  5.6848706076808336e-22  2.9009991231121101e-38  3.8161542162166391e-19  1.2075545065000920e-05  -2.0924825846854846e-03  -7.2997686734108086e-02  1.3384958138238995e-23  8.3696627038170934e-22  8.5364906337980964e-13  3.7130928707649226e-39  -2.0400351701759754e-39  -7.6453590542367011e-41  9.4541803840019357e-38  1.0199151076449660e-55  1.1682173070906619e-34  -7.6728544121839299e-35  -3.5810580705883658e-20  1.8540345748654088e-49  -5.4741075029280488e-20  1.6318769208110794e-38  1.6440152179430976e-31  1.5155540489373501e-28  -9.6460431299120540e-25  3.2082759122719958e-18  -2.4496177445983990e-02  -3.2888727772678725e-46  -8.2584975450778112e-30  -4.6495338875438367e-16  1.9789565398320621e-15  3.4392887075044555e-41  -2.1984423189935754e-11  1.6142948643351492e-10  -7.2633453158582909e-09  -2.0277624161551827e-12  -5.6377944591633526e-31  1.1745844500372461e-18  -2.3300022423205468e-27  -1.9501788406185867e-23  9.8117171088841084e-31  1.0702534010941729e-33  -6.4408516569810232e-38  5.6587635794148386e-23  -8.0348671561400995e-16  -1.3008000102626866e-05  -1.8923700692002970e-34  1.7005852532144209e-07  -2.9449083772430223e-13  2.0231320222700790e-43  1.0370370301851529e-25  -4.1481555152767989e-22  1.1902324294106513e-41  -1.0407246802162065e-19  3.8313645481139820e+00  -5.5625310306406018e-10  6.7209218500496316e-30  -5.2924704421760381e-34  1.0302587806217620e-24  -1.2550027719707533e-31  1.4580828417292015e-42  -4.8865464207386485e-21  -3.4268645117382451e-09  -1.7469741494090868e-31  -4.4018436389568602e-17  -9.9702578657790039e-17  5.3730662145593915e-15  2.9259330728700706e-31  6.3489874568141662e-25  -3.1096695779967528e-20  4.0469182405666358e-28  -1.0898182317167985e-05  -1.0476463100615188e-12  -1.6757052719025002e-41  5.8462970260981516e-20  6.9178599228473529e-33  3.6502271617749260e-37  -8.2163141061085236e-41  8.2742224364162149e-19  1.3918658818983321e-14  1.8374959952483991e-27  4.9671009214264006e-33  6.3369524860515889e-38  -9.0947855542268403e-41  -1.8076342895643815e-06  -2.7580204463452156e-22  -4.6844712841880483e-38  -1.8595328653033546e-35  -2.1555785468030158e-26  -1.8401116186498034e-15  -9.1640816840266181e-30  4.1755093631034454e-16  -1.9192095552806023e-36  -8.5545531907853861e-07  -7.6612464429888013e-35  5.4876256365805662e-24  -4.1363044762933191e-15  1.5896830419344077e-25  9.7700827445226614e-53  -3.1608029612586452e-12  -1.6720434144742013e-31  2.7741367695298924e-20  1.5252489899774740e-11  -4.0327319203901610e-29  4.3075391524233316e-26  -1.4981550487046374e-10  3.5676094383282915e-40  -8.4034258146380137e-49  -3.0088888534570089e-37  -1.4272497520124345e-40  -1.6682240983378311e-12  6.7847298159089238e-07  9.7487672974242431e-22  -2.0747922721268643e-06  1.5060368965429633e-30  2.2802204924481362e-21  5.6106289809127006e-14  5.6041023263253516e-26  -8.7357042319471561e-26  -5.8327342997422321e-17  -4.2339905643421270e-36  2.8371214310521288e-09  -1.5135134199401302e-21  -3.1088968962233792e-03  -8.8170616691662734e-25  3.0273031802211308e-08  -7.4724324645287541e-10  1.2542099004751481e-14  -8.3022732730477874e-20  -3.3708158843541976e-17  1.0313362159157912e-29  -6.4446487656524436e-32  -5.0675678060578090e-27  -2.7790199068161846e-02  -1.1166112141615832e-39  1.0321187598333602e-44  -7.5205141916127197e-48  -5.3154365024524209e-36  -2.7530783810733418e-16  3.4683348360445197e-46  -4.6231214762645558e-07  3.7964153881303955e-12  3.5655668892598276e-16  -2.6404991883571381e-34  8.7446444764994750e-21  -1.4423392611622223e-19  1.5444320035301907e-39  -4.3538454023613958e-22  -1.2455122091685614e-41  -4.6111668200928300e-38  -1.5617515041269160e-28  1.4213796219407220e-40  2.2265035243632581e-29  -2.2565905997564623e-45  -3.9307014131584026e-30  2.3578308102769734e-22  7.8445467520464938e-19  -1.9211301503763181e-01  -5.2488990864828958e-35  -8.4894988546744988e-34  3.4645597070843230e-39  -4.1670758540043234e-10  1.5678469537683541e-26  -1.5873726983044964e-25  1.9774349587555827e-26  -8.8536877255795105e-48  1.3283198741842962e-11  2.8410499856434104e-34  -9.2127108287177321e-13  -8.9774436111684264e-12  -4.0266979107278548e-29  -2.3631515151501382e-24  2.2892735950999329e-30  -7.5316482751319049e-40  -2.9843508166111341e-39  6.2439676629544452e-12  -1.7971550935725212e-09  3.7657862665293064e-21  1.9576132522756913e-37  -2.0256272680734579e-33  1.2542129517242052e-26  -1.2235131786620941e-24  7.1428976801668002e-27  -1.5714019303607559e-34  -7.5301255007344471e-29  5.4958099291001395e-41  6.8881730183692434e-32  1.3155382445157879e-14  -4.2713909623792464e-38  -2.2168545466610343e-34  1.2390735946675251e-31  5.8821298590474423e-30  6.6489110487313321e-46  1.3768560256033162e-44  -5.8614913888177276e-44  -5.3655305588295850e-33  -1.0369101278847560e-34  1.6033181527993434e-30  -3.3583863044797830e-11  -1.7829490217249228e-12  3.4038203358201257e-24  9.7025278010268749e-42  -1.3184081750734395e-45  1.5994330264840580e-25  6.2977311813685248e-50  -6.8411057861957363e-49  1.2919046578503535e-18  2.2480034582303807e-20  2.3542286790116914e-32  -4.9146897382090990e-32  -2.5833381384734208e-26  -1.1258437568279063e-10  1.4462934190320351e-36  5.6434881738211787e-37  1.0443521184312373e-30  -1.0070358741549117e+00  -3.6921837617182712e-01  -1.3916039450338554e-02  -1.4781209174245443e-28  1.0617232217691636e-31  2.2106072711891426e-31  4.1157381008900159e-07  -4.1071060440343657e-38  -1.3418393222186378e-34  -6.4508981661974700e-18  -1.3038812904098472e-23  8.1808279352491359e-36  -2.0813658427104378e-53  1.6286411967206527e-27  -3.8372667416361720e-44  -1.0612094702055968e-49  -7.5998280322992496e-06  2.2287864996074799e-19  -9.4650788573252255e-28  2.8370652005500405e-36  -2.7498960740061240e-40  -2.4749542748243433e-25  -3.8257441845853626e-35  -2.2278621321556474e-04  -2.2384746859481319e-23  1.1521811195645342e-48  -1.6944558176278218e-21  6.2579945915875041e-09  2.3901781593572061e-18  -2.8612578273090104e-34  6.5967942353803687e-15  -1.1220468592680000e-18  6.2787907833558895e-14  3.8703531593280980e-37  -4.2780364609641604e-28  9.3249128660910436e+00  2.6021358627660161e-16  4.4158937734788240e-07  -1.0028563248434659e-04  -4.7802393316952858e-07  3.3558562674684811e-04  3.3518657426758467e-04  2.2126027734257633e-38  -1.4361422574458735e-40  2.5743555070779554e-23  -1.1442893748599599e-20  8.5355075097122644e-19  5.7588322475377256e-17  -5.9164138064040935e+02  1.3507581253724332e-34  4.9391461411499726e-36  -1.6936532162914714e-11  -9.0134452949336238e-44  -1.5054802974657306e-33  7.1905121617996054e-47  2.2618895433796765e-32  -1.2715593578290589e-45  9.7071099240180663e-14  6.5065570038793700e-40  4.0946927249473125e-21  1.9761877282889387e-37  -3.6424038188553256e-38  -4.6966496002916683e+04  -4.3806995878305271e+07  1.2477548701493362e-41  -8.6431562698093055e-14  2.3932642430757322e-51  2.9011802627154389e+03  2.6780891840487604e-30  7.4860753815490857e-34  -1.2705919101844510e-07  -6.5204183617950989e-08  2.1772416667234084e-25  -1.7572860717414683e-35  -1.4368659913559604e-23  1.1653591656745707e-12  -1.4958697968190380e-48  4.1455911762164661e+01  6.7532945317293930e-29  -6.3270605695536576e-28  5.9874194386931010e-12  1.5724354110161681e-34  -6.5171967815247115e-03  -1.2043321947371508e-23  -4.9651592871560751e-34  -9.1087375181501024e-31  -2.1745079500252665e-28  2.9548557313529974e-43  -1.0436314419499801e-20  1.4368749241502804e-28  -1.5452067134690360e-16  -1.5903364224758451e-31  1.0130215875793141e-32  1.3519154278161073e-37  -6.7399399735765032e-39  4.0944276473591196e-31  -8.0473160065973077e-14  2.6361385523287187e-41  -3.1596342095866616e-40  2.0046730198212984e-12  8.3358578621055716e-54  4.0084269451208020e-39  -9.5368458563969059e-50  -2.5995820412528610e-35  3.9486513744243740e-37  -1.9897618989814290e-41  -2.2285570719885994e-21  3.9101726744080141e-40  8.3622512636051364e-45  -1.2255954069141631e-20  1.0378650647591168e-19  -1.7144611053381944e-40  2.5460474399305827e-39  -1.6268796800786787e-42  9.1681277736714888e-11  -5.6695207570338552e-11  2.9973112365796730e-15  3.9597080156345003e-42  5.9822169708256926e-05  7.5924050666486182e-09  5.4849891847039928e-23  6.3160669201587360e-27  -1.9585028786245432e-38  1.4773769424635907e+02  9.0180641444435421e-34  4.4949159600571432e-36  -2.1837420867067432e-04  -1.9498288499058298e-17  -3.5283930420884117e+05  -8.6591792551428534e+02  1.1622115091265974e-47  3.1309228214113689e-53  -3.5133693921143320e-57  -1.8305128882940423e-55  -1.2232519437475888e-18  -1.2489932265501809e-42  -1.4211810490238583e+00  8.5389662746770039e-47  -2.3356427935468129e-51  1.1718097184556527e-35  1.1948572558000509e-29  3.9871561602730479e-37  7.2851271237589361e-25  2.0171682371635669e-38  5.5584273730491074e-21  -7.3054276159211247e-40  2.5044634523877393e-05  8.6836266105896721e-06  -1.0154464405880052e-04  -8.5610565007041034e-42  1.6574124122588740e-01  1.7263112900811278e-11  8.9862597751079933e-03  1.7780959802070512e-31  -7.6480454733034522e-17  -4.9017915303891325e-15  -5.3686885535751961e-33  -2.2519276839705665e-19  -2.6784390636996178e-20  -3.4018132015727967e-23  -1.5280660182409116e-16  -3.9494917867012617e-03  1.5214050269556842e-01  -1.9128828195339793e-35  1.2927178717224363e-32  -8.1604033384156663e-30  -4.0570292972179245e-33  -5.6481912979699861e-08  -3.9186588415321592e-40  3.3219275077421685e-20  -1.6281984304508399e-32  -3.2724928097137832e-17  1.8725531353089004e-09  2.2276592267175654e-25  -2.5729975284326515e-29  -2.5136019601615032e-20  -3.5334961079462230e-13  1.5557156916439940e-14  3.0918343937286091e-27  -4.4525374727926090e-37  3.5217852558912234e-10  1.1858474410067255e-34  5.0690992033331045e-35  9.0278471014803311e-22  2.3162582325669856e-23  3.8973184458816984e-09  -2.1362314806374022e-28  -1.9795465214041338e-06  8.7255807166699205e-40  -3.6585062637638768e-23  -7.7797488351459952e-25  5.0535767429997559e-39  5.4837014533361457e-32  1.1412792673685375e-30  2.5018005107906022e-34  2.0207225369677355e-33  -6.5197177106655368e-33  7.4676231600647465e-17  1.6217503622732318e-32  5.2161855222274492e-26  -1.0392548294702893e-17  1.7766546410156396e-27  4.3723834760561113e-28  -1.9840380059666037e-40  -1.3110665790238094e-20  9.8892579988500032e-27  -4.5369939488471970e-28  1.9900305262723159e-31  1.5988696798916567e-31  4.5899640356146986e-21  1.0618161077433479e-22  2.0258425880316739e-24  -6.9021478244538583e-16  -1.2997320679550768e-29  3.3048124480647413e-37  -3.9878185154074893e-40  -1.3807745227952780e-34  6.1194950860977503e-32  -7.0326513380662774e-35  -7.0463981155151218e-42  2.0766992817786608e-27  1.4696536593339305e-18  1.5033084744758688e-38  -6.0634645180453583e-40  1.2606950916385745e-34  3.9409811152454263e-25  1.6450036826940766e-19  4.5938654184861707e-13  2.6883935224003835e-26  2.1500823948772868e-26  2.2996057391508484e-09  1.7548175515187840e-16  6.1760934136002333e-45  9.6255964284838810e-08  3.0360734817624440e-24  -2.0273427670629335e-43  4.0082741791915358e-44  6.6075856823032896e-49  -6.2114259429620509e-34  1.1351469613322959e-38  -2.5417799285652161e-18  7.4718018228010144e-28  -9.1656415564604258e-25  -4.7310018494488959e-16  1.2234671329583916e-35  -1.8547384355413264e-37  -3.2703465146572785e-26  -2.6717377259155714e-31  -2.9289570306466922e-16  -1.2142281266785954e-24  7.8939866149711346e-19  4.7386640083207445