<?xml version="1.0"?>
<VTKFile type="UnstructuredGrid"  version="0.1"  >
<UnstructuredGrid>
<Piece  NumberOfPoints="6486" NumberOfCells="12696">
<Points>
<DataArray  type="Float64"  NumberOfComponents="3"  format="ascii">0 5 0  0 0 0  5 0 0  5 5 0  2.5 0 0  5 2.5 0  2.5 5 0  0 2.5 0  2.5 2.5 0  0 1.25 0  1.25 0 0  1.25 5 0  0 3.75 0  5 1.25 0  3.75 0 0  5 3.75 0  3.75 5 0  3.541666666666667 1.458333333333333 0  1.458333333333333 3.541666666666667 0  1.875 1.25 0  3.75 3.125 0  1.284722222222222 2.326388888888889 0  2.683189655172414 3.767959770114943 0  0.9375 0.9375 0  4.0625 4.0625 0  0.7252209595959597 3.026357323232324 0  2.763480392156863 0.9129901960784315 0  1.875 4.345238095238095 0  4.345238095238095 1.875 0  4.192708333333333 0.8072916666666664 0  0.8072916666666665 4.192708333333334 0  3.368055555555555 2.326388888888889 0  0.6837606837606839 1.738782051282051 0  3.285485245626782 4.324328415208927 0  2.551239698778062 1.693130150610969 0  1.827256944444444 2.868923611111111 0  3.464875022477093 0.6813924607921316 0  1.942880513719175 2.059558626187995 0  3.04563492063492 2.971230158730159 0  4.375 3.4375 0  2.13639445139758 0.5994472256987903 0  4.272228422619047 2.606956845238095 0  0.625 0 0  0 0.625 0  5 4.375 0  4.375 5 0  0.6400043240752655 2.384646170113389 0  1.347691225855598 1.660875475110776 0  3.515783617857982 3.723905460714006 0  3.125 0 0  1.875 0 0  0.625 5 0  4.375 0 0  5 1.875 0  0 1.875 0  0 3.125 0  1.875 5 0  5 0.625 0  0 4.375 0  3.125 5 0  5 3.125 0  1.489644181965304 0.6007147273217681 0  2.054597701149425 3.742302955665024 0  2.662520990197781 4.39452575763237 0  2.415835363784578 3.165530021913244 0  0.8679986894865213 3.602373689486522 0  1.267459753787878 2.886186079545454 0  4.099702380952381 1.365327380952381 0  1.316964285714286 4.438244047619047 0  3.7915135293491 1.959691594758709 0  2.875141124191255 2.118761176511833 0  3.00418010501169 1.397414179299248 0  0.4081721322167092 3.410647930198662 0  0.4166666666666666 0.9375 0  1.014190407998288 0.4422301359994293 0  1.383260571305984 1.162718286082048 0  4.53125 3.90625 0  4.453125 4.453125 0  3.772848162504192 4.48678272083473 0  2.8125 0.404329517041716 0  0.4538690476190476 0.4538690476190476 0  2.305461739347387 1.04517007574828 0  3.771263799175824 2.624190260297553 0  3.229617768018734 1.809956994202883 0  3.780190884441317 1.025307111692601 0  4.646337365591398 0.9375 0  4.537623451379149 0.4609485750426037 0  1.200477888421151 3.934852888421152 0  0.3536626344086022 4.0625 0  0.4623765486208503 4.539051424957397 0  4.0625 0.353662634408602 0  4.560525106689535 1.390989100915847 0  3.958439078571988 3.619844539285994 0  4.672619047619047 2.1875 0  2.1875 4.672619047619047 0  1.862808494877602 3.325947624431087 0  0.3268135998175443 2.8125 0  4.674181280189791 2.8125 0  2.283233994935276 4.138623547175983 0  0.9375 4.677879119362977 0  3.08488061581743 3.469889594488945 0  3.113427375573758 3.913955730709506 0  1.652847799068813 3.950848935641292 0  2.932652662909449 2.550542739521724 0  3.311350648514189 1.088831994878698 0  0.6770833333333333 1.295851139601139 0  0 1.5625 0  1.047214787840024 1.96818092308125 0  4.183331482095785 3.03958703580843 0  3.4375 5 0  1.071307777252521 3.246275861010018 0  0 2.1875 0  0.386576856303419 2.03125 0  1.713862716483534 2.439783116849799 0  1.775396256975935 1.665976816304977 0  2.231236976948428 1.443917394671254 0  2.373900732409897 2.086930260150635 0  4.114918237574474 2.221646174618671 0  3.661302567757379 4.099620139144836 0  3.378215938602977 2.734494874063393 0  0.9842097536079312 2.597286741306247 0  1.642795138888889 4.672619047619047 0  4.0625 5 0  2.099458800960004 2.567446522665629 0  2.616202751603346 1.297895893940078 0  5 4.6875 0  0.9937554350075428 1.512592975947215 0  2.8125 5 0  3.002695327068194 4.614055254615477 0  3.205627424097207 0.3852436382721472 0  1.678616581261621 0.927556612265266 0  3.365326698305438 3.196943731162083 0  1.554834936170314 3.120009882655813 0  3.108408340729323 0.7797187795784133 0  3.684368918102174 0.3728877601163941 0  2.716214835303553 3.39276351922003 0  2.37718583984784 3.551973401560441 0  0.3750662445374837 1.52191994866787 0  2.679073487930202 2.844160731602957 0  1.557635869750078 1.991068682985722 0  1.812595698561088 0.3839273018252746 0  2.512014721281916 0.6320641118792227 0  2.1875 0 0  2.349973454443689 0.3189980586887866 0  4.6875 3.59375 0  4.636052949022233 3.178355898044465 0  4.6875 5 0  3.345485909784306 4.665765449101383 0  0.536727472389443 3.749603193819277 0  4.349541499640203 1.116201826262156 0  2.886559045931982 1.774013674579691 0  0.6770833333333334 0.7142857142857143 0  1.5625 0 0  4.120842096538671 4.628726497527622 0  2.176157474177018 1.793470423744689 0  2.175650736889416 2.909863021769539 0  4.036616464259081 1.709699085170981 0  3.887974623473683 0.6492597046022868 0  3.4375 0 0  3.70675699592552 2.289666624772415 0  4.697265625 4.208984375 0  2.815177577303495 4.085937578239174 0  4.672619047619047 1.730733296184288 0  4.6875 0 0  5 0.3125 0  0.3125 5 0  0 4.6875 0  0.3276089296588581 2.484526834811734 0  0.712433309515852 2.065138854645612 0  0.6376435912223634 2.711473454001295 0  1.184991292170422 0.7222504400947201 0  1.31884329779317 0.3206944232264773 0  3.683609198994263 3.44428698533042 0  0.3125 0 0  0 0.3125 0  4.231797269642997 3.789141808928991 0  1.564375596050781 1.425998687184973 0  2.007640894175573 0.9032106925568466 0  0.955125897558294 2.276666098587227 0  1.43898735721003 2.611310720271951 0  1.954491523717513 4.040700257877075 0  1.752947649777421 3.652439445419346 0  2.509575750247638 4.678021307664052 0  4.687194709705067 2.499965519538002 0  1.5625 5 0  0.9375 5 0  5 2.8125 0  2.1875 5 0  5 1.5625 0  5 2.1875 0  4.0625 0 0  5 0.9375 0  2.8125 0 0  0.9375 0 0  0 0.9375 0  0 2.8125 0  0 3.4375 0  0 4.0625 0  5 3.4375 0  5 4.0625 0  4.010848109290813 3.306446973933037 0  0.3077461147713075 3.119700563473354 0  4.6796875 4.6796875 0  2.333079012424948 3.845757959077508 0  0.7829771267899832 3.317744656243421 0  1.159100632608513 3.532487125138763 0  0.799066251840424 3.893573750162776 0  1.57326499580282 4.255438189102632 0  0.7309366047093668 0.2991402264438908 0  0.3054777494262156 1.223275888123843 0  4.027475154280377 2.78211326942427 0  2.35270874745988 4.426658168476266 0  3.474236283732569 2.021154281686229 0  4.401414236174444 2.329446628171927 0  3.39403781747337 3.987097102903034 0  1.077524329801934 1.214100792470484 0  4.065611571711903 1.066085524514197 0  2.165399002716117 3.335637450367864 0  3.007639563081306 1.093684039371638 0  4.030818285732145 4.351883315180857 0  3.504115222530889 1.739284194222036 0  1.224503368215566 4.712091441401919 0  3.805634204685714 1.321528442399996 0  4.319233123479386 1.573547993867769 0  1.024007670021325 4.394604704797005 0  3.776400432023095 3.839003324979723 0  2.991819819453308 4.320567175146181 0  0.9782797534072181 2.886406017887129 0  1.763835134082104 0.6602345487826022 0  3.765182288741625 1.631193038541544 0  2.267959593989681 2.345053543725764 0  4.412434895833333 4.168294270833333 0  4.4072265625 4.7255859375 0  2.791493971314009 3.11210833271929 0  3.408766223032414 3.469500900677365 0  1.915147569444444 4.725484476461039 0  2.070301968506271 0.2605666686358055 0  2.767932250651506 1.530295992695836 0  3.280065043173439 1.364863281105779 0  4.45101570110842 2.974157152713635 0  3.521928862999512 2.96990445010402 0  2.552921961347576 4.008414007169315 0  0.2682955376854191 3.657555015841003 0  3.084522868361304 2.310593316718068 0  2.669255823227708 1.939379494498064 0  2.615884629473921 2.238841231570381 0  1.405652091971449 0.8877813821442277 0  3.25151486618811 3.68536115104276 0  1.963741569810629 2.331207252264507 0  4.017297980292599 2.486269171379106 0  3.869168920841219 4.748188103831625 0  3.596868753579134 4.77342723825056 0  2.41262958240343 2.764128584995838 0  1.266750578673391 1.404747710001619 0  1.559243962241121 2.85146506328516 0  3.128799423834764 2.052081657715259 0  0.6770833333333333 0.9778025793650794 0  0.2083333333333333 0.78125 0  1.978224492765132 3.087074731032578 0  4.051448850909273 1.969392119104174 0  1.320577095006813 4.172234780971559 0  3.214261103850064 2.534397293281829 0  0.2635729089754111 1.779234736680035 0  3.510775680035133 4.460728640112889 0  2.603081405968802 0.2432579385496493 0  2.866341315154884 0.6662105505481998 0  3.000919221100777 0.2270278495648781 0  1.298858304121393 2.05917319923859 0  2.020292299736597 1.589794568392338 0  0.7401688396476035 4.470780315741533 0  0.6721783535561408 4.733125588707921 0  3.753712482075402 2.874301339727514 0  3.557348205914658 2.491958694539413 0  1.094565978195436 0.2011034254079851 0  0.9338148378011396 0.6833568465908735 0  2.945530578578538 3.701798332963805 0  3.111707186654356 3.216904195825605 0  1.341791111822685 3.293123262233967 0  1.632939924064587 1.184895891095613 0  0.6335477978936732 3.517393619499591 0  0.5576014611130192 3.210998966942492 0  1.564344196470102 0.3630498725895039 0  2.75362450242839 4.626680495816594 0  3.571304405229554 1.192452351107437 0  3.522934592621944 0.9359134489437148 0  4.453125 3.671875 0  4.765625 3.828125 0  1.055906321410838 4.14310472322957 0  4.795146539102229 0.46875 0  4.767156345199235 0.7178596932040019 0  0.2048534608977711 4.53125 0  0.232843654800765 4.282140306795998 0  0.5393715189906129 4.270810883024032 0  4.329922600274667 0.2750645887059072 0  4.275515096738972 0.5448389557295173 0  4.477747423652795 0.7252838358993123 0  0.2002829820452772 0.46875 0  0.4352678571428572 0.6956845238095237 0  0.5007241582667088 0.2123388122114133 0  4.672890923830735 0.2500902110494848 0  0.4308009280819452 4.783624996516437 0  2.104871305393774 4.438653689007242 0  0.2274454167838428 0.2274454167838428 0  3.446466574593436 0.4359605369011901 0  2.12354112127588 1.217588426759619 0  2.309175236825235 0.7888355970690434 0  2.556178570281936 1.054299163237582 0  0.578683248637
[...]
<PointData  Scalars="f_16-0"> 
<DataArray  type="Float64"  Name="f_16-0"  format="ascii">-2.3585346757887577e-35  -8.8515989089073660e+05  -1.0415069426528803e-31  6.3508525751624560e-55  9.0599679875425484e-12  1.9979326888061559e-37  -3.0936082566895947e-40  -5.9788210639456936e-12  -1.1275313950508955e-19  1.5087945088471907e-01  6.8722273372265569e-04  5.9482162308698268e-39  -2.2421746925419795e-24  -3.4520593162850579e-35  -5.5916598451900273e-21  2.3203871078973159e-45  -4.6065793814132743e-46  -2.5999436273630847e-26  4.3174642026376534e-24  -2.3753157930494510e-09  3.6450520482871589e-31  -4.0437398887176726e-14  4.6637304386523828e-31  -4.0956605074911187e-03  -3.5498207150380351e-41  -6.7751231778405450e-18  1.0963637698647121e-17  -5.5679368649537094e-32  -4.7533093227440393e-34  8.1220175013227156e-28  3.0744300185370531e-30  2.1373219099870938e-22  -2.3940607550775748e-06  -3.9953748234358523e-38  -1.3275975954376986e-15  3.0062558414513733e-20  -3.2623405897865782e-23  1.8500651877060589e-12  -1.6511005044781418e-26  -1.7924578649451432e-38  -3.5038130493807543e-12  -4.2118233228259727e-32  8.3346972633394927e+01  1.9248598715679196e+05  -1.2598342887031666e-49  -2.1760480429583145e-49  3.7173146548578084e-11  3.0734892865391489e-08  -1.1281254232483769e-33  -3.1504257638961717e-17  -7.1951691575439602e-09  1.1837680746633842e-37  -3.2083932329540062e-26  -1.1691174831440187e-38  1.8284967590354890e-07  -2.9782263175491031e-18  1.2990573426251054e-38  -6.8530584424376661e-34  1.8252138773756329e-29  -3.8193532063186096e-42  1.9170362369119727e-40  8.9659345312877113e-07  3.7943692163233590e-27  4.2837300473841855e-35  -5.6978115958738452e-24  -4.0892935017210961e-25  1.8587402802515725e-19  1.5465271279652785e-30  6.6155033975797898e-33  -9.3596094690469657e-29  9.3526210575364737e-19  -3.3282824926673206e-21  -3.0572602874046580e-23  -1.5546481723575056e+02  -1.1625629827536782e-02  -1.8003228051759418e-04  8.2978584294999317e-44  -3.3770083212211946e-46  -8.4556309305485096e-42  2.7357147398871597e-16  1.6019520241284081e+03  9.6152471109343217e-14  9.0297412565936807e-28  -1.0723832213897920e-21  -2.0322646544612830e-26  2.2023248563477547e-30  -1.2647594337978323e-29  7.1634020851328754e-29  1.1173814063300656e-28  1.9148537222186135e-32  -3.9687201576743645e-26  -6.0950418800051695e-34  -3.3057702069237627e-36  -2.6635103108804607e-34  -1.2501071000364008e-37  -3.5336721257305511e-23  5.4697495339489790e-16  -1.5015185762035944e-36  -1.5081036951790462e-31  8.8612214160678976e-36  1.5150481272525481e-30  -2.2252261862841585e-33  -2.7789485693377146e-27  8.1969100881487342e-22  2.5114070131638548e-22  6.0182638684447036e-03  4.5416290900078650e-05  9.5203010464736858e-11  5.0590935306674959e-34  5.6433892363392332e-45  -1.4467298517080569e-21  7.5364917250198757e-10  -9.2381016698710878e-08  -6.6214611697842457e-15  1.1370229244388723e-09  -1.2005747149076264e-13  9.3593099180878605e-17  4.9063810121007104e-29  -2.8623275222326460e-37  1.6815793606822725e-25  5.1279358662331318e-16  -1.4578525164176857e-34  3.9516107846685034e-46  -9.3019779299880704e-17  5.7777058668756853e-17  -2.6748013495525610e-53  6.9433887026977474e-07  -1.2141112388572714e-41  7.7317395002771290e-39  1.7395194711348696e-18  6.4319988835813618e-08  -6.4524724361149236e-29  -1.2283701414983394e-20  1.2620285602524206e-20  -6.9721391693260905e-22  1.3196971940943228e-26  2.9075007229996342e-27  -9.5973977786774512e-03  4.4705182960561963e-23  -9.9989792157286485e-11  5.4996225325023078e-10  6.4056437923853945e-15  8.1520618728965944e-11  -3.8885877552265524e-12  -7.1514543779122583e-42  6.4952879268917787e-38  -1.0823384274229754e-52  -6.9102171906715587e-43  6.4368002627769792e-26  -9.0944316427890707e-32  1.4275607467357632e-18  6.0927913415284189e+00  1.4700566040237288e-06  1.8240541902826040e-46  3.9470017047487343e-12  1.3410744116866840e-19  -9.1362774789026631e-31  -6.5790568699822296e-24  -1.4588494614073562e-20  -3.1123663926499212e-24  -1.1579678741277125e-46  2.3467391118503983e-33  -2.1784152260382689e-36  4.9683755125863936e-28  9.9743484971423600e-33  1.1502261094352483e-35  -1.3952395668241994e-32  7.7818636460339000e-13  -5.7300485198567961e-10  -3.5635153773661608e-14  3.0294091651496908e-04  3.2370093361792062e-05  2.8452436769021977e-33  -5.2626726152502633e+04  -1.4705360376302324e+07  -1.6766474275496728e-39  2.8116239359222729e-07  -2.2394521556971640e-11  2.3351609659527195e-14  2.1330819268227629e-16  -4.3741509269959176e-30  8.2965797383335785e-26  6.2655538269910561e-38  -6.5987868713510067e-35  -7.8010377284056443e-38  -1.3231420347541470e-38  1.2239893286678521e-39  6.8171954058234128e-40  -4.2349967573212964e-38  6.4295895028990879e-38  -7.6771515719285593e-24  4.4689805893809067e-34  -8.0623581302215737e-14  1.3195364170213764e+00  -7.5728102856097564e+02  -2.6895583347031885e-15  -2.8632337345254640e-20  -1.4153431197655009e-26  1.3579310917315941e-42  -9.8940086751845879e-49  -2.6096050001840306e-34  2.5218160705763808e-19  1.7829511815373568e-50  1.4875099528635253e-29  3.7565099824812542e-21  2.5772541677106551e-24  -5.9470496206506676e-28  -4.4373055082068590e-31  3.0714334446393377e+01  -1.8365865252134450e+00  7.2183979310745822e-32  -1.1729366031176486e-34  3.4402840561893351e-23  -1.8222249254822878e-30  1.4476670792750175e-34  -1.0036404555524986e-04  4.1995871034101630e-28  -2.5706891350342133e-23  1.0195235802448480e-19  -9.6229779040418053e-43  -1.3113976007202811e-24  3.1241723359329058e-36  -4.1273478203256755e-28  -2.8948685514295138e-32  -1.6593379570587374e-31  -6.0582197152206086e-37  2.6356679779462435e-37  2.0339521620330192e-17  9.9731347939881189e-10  -3.0205999413287455e-27  -9.6509950383009113e-17  1.3316408635489815e-43  5.4364342423670198e-48  6.9729846050673323e-27  1.5369599152627388e-33  2.6091565431539454e-36  5.9843378760148786e-10  2.6760020684823598e-17  -1.1363241998627925e-22  5.1700926913718225e-36  -2.0658878624230085e-28  1.1246800844902934e-30  1.3602973850745902e-24  1.6976005166287003e-21  2.1992452765041110e-16  2.9240850607774766e-19  -1.0226879686963864e-06  -6.8906471401062703e-32  -5.1533919480920358e-14  1.7209909000724650e-27  4.8214042246675676e-44  -1.7202269244018876e-43  3.6784961575561708e-21  8.6260255187759762e-05  6.9235241909493427e-20  9.1830582038619356e-21  6.9358471808275013e-01  -8.0367158317207361e+02  -1.2496725176084611e-20  3.3378237246571020e-30  1.2272631660368232e-30  -2.2416380161166733e-23  -1.7805074454395319e-06  2.6881842783363646e-42  5.8120216057220494e-14  5.0030435703902703e-18  -3.7118044656419842e-17  -5.4324779315946020e-12  1.0810792226028265e-10  -8.7105458277904863e-32  6.8024980207445070e-35  1.8268071500404161e-28  -5.8787919877570063e-25  3.1617583793499535e-02  2.4747256331986685e-03  1.1566520931107025e-30  5.1615045391500054e-28  2.2338414802166312e-22  -1.2665689491735901e-06  -1.5387783640649651e-23  -2.2535245762043307e-20  -1.2482456305467019e-06  -2.2260116966705432e-37  5.7200864526257498e-25  -9.3828669858689089e-24  -1.8622316216448407e-41  2.5560983773003172e-44  1.1281854203311762e-31  5.0201928749786990e-31  3.5084937527969660e-33  -2.0984254935762458e-31  1.2625525159916518e-29  -1.5395458846522348e-30  2.3347018807697416e-26  3.6775993702561826e-27  3.3789974755248278e-28  -2.1060715933424737e+06  6.0434411909843652e+02  2.2132345982114901e+04  5.7058007575815447e-29  -9.4446964266092027e-36  -1.8998848058103678e-35  -4.5456387458105646e+06  1.5345681790665410e-21  -1.4569271345915002e-12  1.9153236084026119e-13  1.2956149901794839e-17  -4.4212664887478360e-29  -4.7024085300374710e-27  -3.0635657179198741e-13  -2.8586154376980339e-26  1.1641354291915076e-23  -6.5226537501815546e-34  -8.4986890471664641e-38  -2.1355047073190241e-48  -2.5078365550453087e-06  4.3182014536439999e-29  -2.5134420612163770e-27  6.2923722283444408e-21  -1.5964910303517742e-36  -7.1522839799340288e-25  -1.0832779311445086e-25  7.5283622261030401e-08  5.4666187327674762e-23  9.0274854889204237e-26  1.3012518029416885e-31  -8.1306214299741239e-08  -6.0811181655803392e-34  4.6250251303688384e-33  -9.7691610838020827e-11  -8.3643220618749310e-37  -3.5694386206082443e-03  -1.5001604620196094e-15  2.0713053358445910e-36  -2.0965044622418686e-40  5.8787055036315556e-26  1.4547602256203474e-38  -1.3039157854946620e-16  -1.3132662968178191e-14  7.2226856824564129e-39  -3.3506236268527201e-34  4.4923879638985553e-12  -1.3693923392400499e-19  -4.0528724428979734e-23  7.8274942537716488e-40  -9.7174590462575550e-21  -2.2854053333372569e-39  -1.2451199870434861e-35  -1.8141328434211902e-20  3.8686150328967837e-37  -3.0350223270501005e-16  1.6895359194258819e-04  -2.9528693758499779e-02  -1.0297921070742662e+00  5.7885287992444437e-22  8.4280900178111855e-21  9.7909817070203971e-12  -7.0772934805676739e-37  -5.1865938933953004e-37  1.3559619113763040e-39  2.8012357945151619e-34  6.7086779759900297e-53  1.9112824141093746e-31  1.7801288986472702e-32  -1.6252281586399371e-18  8.6606894780887673e-48  -1.5677679393818048e-18  -5.6643183329413636e-37  1.1223992250926952e-29  1.0779989673783444e-27  2.3209383410152070e-22  4.5100883470923984e-17  -3.3938012548393476e-01  7.2871227292205994e-44  -4.3998567046587000e-29  -7.6969818764821698e-15  3.5554511977790113e-14  1.4786746730460309e-39  -1.4927444742138380e-10  3.3165289804506823e-09  -1.4834566754203849e-07  -4.1250478896699370e-11  1.5578190834541544e-28  1.6985143740025682e-17  -1.0183628010112772e-25  -5.9504379815127534e-22  -1.4613680316858862e-29  1.1574734388957026e-32  -9.0562014281180328e-37  -1.7412830816944122e-21  -1.0401073985412417e-14  -1.8382311140220748e-04  2.0292808063910941e-33  2.2346505438299718e-06  -5.5201706702115644e-12  2.1215949577814701e-41  -5.4857646310945873e-24  -6.5471822081154347e-20  7.6363002214500606e-40  -1.9511098049843667e-17  5.3199733296793575e+01  -6.3198096109591871e-09  1.2370757389563085e-27  -3.4703130549964909e-32  1.7472390679495732e-23  -1.8319421266758773e-29  -2.4521117686025492e-41  -9.2838133272742733e-20  -4.5944327816844117e-08  1.0588616639674788e-29  -5.8646791709216939e-16  -1.7559639721485681e-15  9.5247101439496116e-14  -2.8666538035325272e-30  1.5021270530419309e-22  -1.0476097867368375e-18  2.2256787755965725e-26  -1.5185663756536500e-04  -1.5446375068655222e-11  -2.2837310263732121e-38  -4.2736772383829113e-18  -2.3838822383165325e-32  1.6495289244748511e-35  2.3186058681949489e-39  2.0657624645835423e-17  1.2811765376406783e-13  2.5067309692376134e-26  -3.1090265761438792e-31  -6.3234316133307970e-37  1.2784485753124930e-38  -2.4870073662857912e-05  2.7236542082372231e-21  -5.4381305752274689e-37  -3.6192905209679898e-34  -4.2634604607845719e-25  -1.9894480048745737e-14  -1.5718890558846575e-28  4.1344520064627394e-15  2.3889070445640921e-35  -1.1910499368030594e-05  8.2724479354579969e-33  -9.6519147878840340e-23  -8.3791227718064137e-14  -5.4422795542210515e-24  1.0715064603147186e-51  -1.4010121219819846e-10  4.6456459421495777e-30  5.5502123070671739e-19  2.5657290362175543e-10  -3.3590886151901761e-27  1.7060650923055547e-24  -1.6814225933524842e-09  -7.3896831285192015e-37  -1.1112232305835470e-45  6.8749401048771457e-36  4.5274073425329958e-40  -3.5689172614700675e-11  1.2100331111511831e-05  2.1523771570454176e-19  -2.8651187411253987e-05  -1.7984047490974742e-29  1.7144839858672139e-20  9.2601235395406646e-13  1.3603450820864707e-24  -2.2063153200797540e-24  -9.7591635328787636e-16  1.2195416957183571e-34  3.4232475960460249e-08  -1.1366138259320078e-20  -4.3411377456080084e-02  -7.5607444873146382e-24  4.5180471564033712e-07  -1.5466588968206450e-08  1.6114267276763046e-13  -1.3479120564694426e-18  -4.0012747943631596e-16  -8.7975685870817583e-28  2.7210678892392248e-29  1.5230211217541224e-27  -3.8547590614923233e-01  -3.7503344842807057e-38  -1.1180189122678804e-42  2.9765767462093621e-46  4.2433747356538120e-35  -6.2070355061731537e-15  -8.2801497034520891e-44  -9.4308617056300478e-06  4.6605849701174163e-11  -2.3930982685876906e-15  -1.3660524853244379e-32  -3.3271596516889450e-20  -2.1613410203789109e-18  -2.4289774403918311e-36  -1.0546873448142694e-20  3.9526395745925919e-39  -4.6100926943188720e-37  -1.4504170361422699e-26  -2.0142828488409104e-39  -2.7974695071854145e-26  -8.6143138971000158e-43  -2.0830751534244570e-29  8.3139977489762313e-21  1.6668167375691272e-17  -2.6995207164418913e+00  -6.2324770663697400e-34  2.8033287500425765e-33  -1.2670494954286969e-37  -5.7779721294650270e-09  5.2089471579003996e-26  -6.4116094332805899e-24  4.2572693296602627e-25  2.1799166002259602e-47  1.3792813128623587e-10  -6.1183950268981609e-33  -1.5091190628048094e-11  -1.3606030867925284e-10  -6.4591714183827908e-27  -4.7928108405073769e-22  -3.9794801274413528e-30  1.1741518678809364e-37  -2.6545761892384250e-36  8.1445004230414674e-11  -2.6829687889383472e-08  1.1593253109522695e-19  2.4529438183984890e-35  -3.0677896885346393e-32  1.0094084693954007e-25  -7.0926882040840607e-23  4.3467721177861706e-25  -1.8201948224162524e-33  -1.4501425137325688e-27  -9.3392581163926979e-40  -2.0431795116895364e-31  1.3481041584269822e-13  -3.2475240654133726e-36  3.0990783525877339e-32  -9.0792114209263570e-31  1.9299350077587191e-28  -4.3028594613621624e-44  1.2568592521728635e-42  3.6434033856316213e-41  1.5283915012424500e-31  4.3332414553036370e-33  8.3317761091669470e-29  -3.5418957799103873e-10  -2.3204277362709440e-11  3.9598849517374645e-23  -5.7010468121298372e-40  -3.6793968658940133e-43  7.3206062059549720e-24  4.7230051727606721e-48  3.8344816807501830e-46  4.5142782589434705e-17  1.9936300067610662e-19  6.3435150158407017e-30  -4.4302030895161306e-31  3.1206457655744814e-25  -1.4720384997436451e-09  -1.9554372842043024e-35  -1.4512235179125075e-35  2.1800308922304824e-28  -1.3934110804226814e+01  -5.1371701693085097e+00  -1.9256028799961239e-01  2.4719236176017111e-27  -2.0817429645793412e-30  2.9553150367098434e-31  5.5366365607671231e-06  3.1547231576398771e-36  1.9585685375865254e-33  -9.9926779945747772e-17  -1.7720222440795040e-22  2.1400243603976936e-34  4.1675070039023092e-51  5.2958302479434468e-26  2.8907114544135356e-42  -1.1695236734323421e-47  -1.0405523899905918e-04  2.5260707545031844e-18  -1.3081136536813091e-26  2.3857119724509094e-33  3.1695923462573202e-38  -3.3273870532204427e-26  -2.0416475826110097e-33  -3.0809298028165459e-03  1.9652268335340113e-22  -2.2544586095759273e-46  -3.6323442568240920e-20  7.8016456142068020e-08  3.8780416463758575e-18  1.5205092659325024e-31  1.0141141198149961e-13  -1.4593458017505672e-17  1.1907012417834297e-12  -5.8660964801466728e-34  -1.0879979447714875e-26  1.2946353483057075e+02  4.1129602310223318e-15  6.2694430931025452e-06  -1.3910337803552163e-03  -6.8420429412185012e-06  4.6595647525550727e-03  4.6749362378817327e-03  9.3387373682332630e-36  -7.8842642898812342e-38  1.1230693795850218e-22  -4.6450829397947134e-20  2.0855937655105205e-17  1.0713877866040532e-15  -8.2331375565738817e+03  5.0527668530564408e-33  5.8807100798491183e-35  -2.6189534647360912e-10  2.0694975156978267e-41  1.8296010494804134e-31  6.1236295832472682e-44  -6.5976661540090985e-31  1.3063955705081779e-43  1.9794480866032782e-12  4.8745364253001337e-38  4.5312288582414421e-20  -2.4822788737727645e-37  7.0414827795837021e-37  -6.5731677623393352e+05  -6.1364753973052180e+08  9.8489497528567875e-40  -1.0842007136844348e-12  -5.9395174248500210e-50  3.9490424601868064e+04  -1.5401846283227505e-29  -5.8327314722487089e-32  -2.5834026678681119e-06  -1.3329607995142265e-06  1.6873101114210550e-24  -9.1661390413784482e-34  -6.8455706743823824e-23  1.1944225418579035e-11  2.6140578821836959e-46  5.7528332844673469e+02  -1.0822205383896224e-26  -4.8340107664259131e-28  8.7077407450817952e-11  2.9718119690438799e-31  -9.1726238993291187e-02  6.9225688406872025e-22  2.3354918692951524e-32  3.2212289071686357e-29  -2.2602671059262210e-27  -2.9112766586645336e-41  -6.1603334474542617e-20  3.6315263229894047e-27  -2.6794072375961026e-15  -3.6134326452338886e-29  1.2393764608584562e-30  1.3588959010889945e-34  1.7043097616470320e-36  1.5615312370294549e-29  -9.5347577262887029e-13  2.9247604707017585e-40  -3.0255965510904694e-38  2.6658424412608914e-11  -2.5122905119512410e-50  3.5653319414006738e-38  5.6531105221965671e-48  7.7396658803926382e-34  3.3912274175213719e-36  7.7033945572586692e-41  8.2973673290326591e-21  3.7795509940327478e-40  3.1882145739798167e-41  -9.7014177026123727e-20  1.3480891503051262e-18  -3.5633877994709506e-38  -2.5038589233430187e-37  -4.7736717163263846e-40  1.2110099328152431e-09  -7.6841350372008611e-10  6.6692920837535941e-14  -1.4489277643715440e-40  7.9524186846779521e-04  1.0474358894253431e-07  5.8898114111654852e-22  8.1689710576570319e-25  1.0624247626984050e-37  2.0539648410996824e+03  -1.5836957535323194e-31  -9.2971447773479351e-33  -3.0066826807542031e-03  -1.3363618049562268e-16  -4.9068394753063563e+06  -1.2010507671677235e+04  -6.8102686567735704e-47  -1.9945811525048089e-51  -1.8139758234378220e-55  9.9286258706861731e-54  -1.1354586251095202e-16  -1.2817178395741194e-40  -1.9722255055105325e+01  -2.3569660636607577e-44  6.8580906620597334e-50  6.1877942888758356e-34  3.3242351945422105e-27  8.9362249176205233e-35  4.0711270406739973e-22  -9.1553664573247387e-37  -2.8138827337460418e-20  1.1224758636059432e-38  5.1405498559942435e-04  1.2753305753922007e-04  -1.4585311312614228e-03  -8.7878367456560837e-40  2.3003852246195287e+00  3.5013344375838003e-10  1.2438359384384243e-01  7.1885672320250464e-30  -5.7999645549597707e-16  -6.6544706863827643e-14  -2.9392955966829391e-31  -4.6914663391234004e-19  -1.7378626943114794e-18  -1.0102716342845899e-21  -2.4407073736603787e-15  -5.3789704511829683e-02  2.1435209449746240e+00  5.1242439754969474e-34  2.5445154131916936e-32  -7.0183929160036999e-29  -2.5823075679917184e-31  -9.6117223790950839e-07  -3.0842232825385516e-38  6.3070766299941129e-19  -1.7091179963870302e-30  6.7100862203590503e-16  2.4718710379501463e-08  1.3960111311775285e-24  -4.2955071144781278e-28  -3.4949784728464954e-19  -4.6215323435703608e-12  -1.1663243387119857e-12  -4.6213721182113507e-26  -4.6492181280364396e-35  6.4465180307438516e-09  6.2635559449972857e-33  -3.5559306642536998e-34  7.5779703344555370e-21  9.6704709549103097e-22  7.9059067112984929e-08  -4.7141989444009835e-26  -4.0995791658489031e-05  3.2065498703653724e-38  -7.0754829139715540e-22  -2.4749261877889484e-23  -1.2187018506226711e-36  3.9112625280755224e-30  3.3830101953705868e-28  -2.3639245936783314e-32  -8.4985720241529871e-30  -4.6581237725130774e-31  1.6338513496637732e-15  -8.4036956256849739e-33  3.7746568863273319e-24  -2.4150794200281916e-16  -1.3956274000269282e-27  -9.3252821381794934e-28  -1.3205468917875705e-40  -3.6509996167616674e-19  4.9649423383758227e-26  -1.9173593092088339e-27  6.6666963731343626e-30  4.7121658778398227e-30  5.5951996087433718e-20  -1.6846189967840125e-23  -1.8065919354526867e-23  -1.3871486172982854e-14  -3.7029532980799011e-28  -6.0160295331941130e-36  -3.5891412410209292e-37  -1.7569805258174183e-32  4.2444454749647041e-30  -7.3880073418929115e-33  4.0007692607479176e-41  -2.9384620639761494e-26  1.7132701040113586e-17  -7.5636369869465516e-37  -5.2015358684760320e-38  -4.1607864058855135e-32  5.0961347885107473e-24  -2.5997451997964945e-18  6.6850435275722554e-12  2.8375012498807200e-25  -9.2309624206880563e-25  4.6878456823850778e-08  1.9833252183213946e-15  9.6440059190236592e-42  1.6987859072384266e-06  3.5489642233304724e-23  5.5041890483664076e-42  1.1819803105802282e-41  -2.8453671291329722e-46  6.5044575654601123e-32  1.6137988518392990e-36  -1.3078705729105795e-17  -1.6660577994301840e-26  -9.1488574633147785e-22  -3.7884258940325953e-15  4.7010757181653838e-34  1.1875523426455095e-36  -3.4574547990316202e-25  -3.6146626941528831e-29  -6.0966683853782927e-15  3.9550417458893967e-24  3.9261979872595306e-18  2.903