<?xml version="1.0"?>
<VTKFile type="UnstructuredGrid"  version="0.1"  >
<UnstructuredGrid>
<Piece  NumberOfPoints="6486" NumberOfCells="12696">
<Points>
<DataArray  type="Float64"  NumberOfComponents="3"  format="ascii">0 2.5 0  0 0 0  2.5 0 0  2.5 2.5 0  1.25 0 0  2.5 1.25 0  1.25 2.5 0  0 1.25 0  1.25 1.25 0  0 0.625 0  0.625 0 0  0.625 2.5 0  0 1.875 0  2.5 0.625 0  1.875 0 0  2.5 1.875 0  1.875 2.5 0  1.770833333333333 0.7291666666666666 0  0.7291666666666666 1.770833333333333 0  0.9375 0.625 0  1.875 1.5625 0  0.642361111111111 1.163194444444444 0  1.341594827586207 1.883979885057471 0  0.46875 0.46875 0  2.03125 2.03125 0  0.3626104797979798 1.513178661616162 0  1.381740196078431 0.4564950980392157 0  0.9375 2.172619047619047 0  2.172619047619047 0.9375 0  2.096354166666667 0.4036458333333332 0  0.4036458333333333 2.096354166666667 0  1.684027777777778 1.163194444444444 0  0.3418803418803419 0.8693910256410255 0  1.642742622813391 2.162164207604464 0  1.275619849389031 0.8465650753054845 0  0.9136284722222221 1.434461805555556 0  1.732437511238546 0.3406962303960658 0  0.9714402568595876 1.029779313093998 0  1.52281746031746 1.485615079365079 0  2.1875 1.71875 0  1.06819722569879 0.2997236128493951 0  2.136114211309524 1.303478422619048 0  0.3125 0 0  0 0.3125 0  2.5 2.1875 0  2.1875 2.5 0  0.3200021620376328 1.192323085056694 0  0.6738456129277992 0.8304377375553881 0  1.757891808928991 1.861952730357003 0  1.5625 0 0  0.9375 0 0  0.3125 2.5 0  2.1875 0 0  2.5 0.9375 0  0 0.9375 0  0 1.5625 0  0.9375 2.5 0  2.5 0.3125 0  0 2.1875 0  1.5625 2.5 0  2.5 1.5625 0  0.7448220909826522 0.3003573636608841 0  1.027298850574712 1.871151477832512 0  1.331260495098891 2.197262878816185 0  1.207917681892289 1.582765010956622 0  0.4339993447432606 1.801186844743261 0  0.6337298768939392 1.443093039772727 0  2.049851190476191 0.6826636904761904 0  0.6584821428571428 2.219122023809524 0  1.89575676467455 0.9798457973793544 0  1.437570562095628 1.059380588255917 0  1.502090052505845 0.6987070896496241 0  0.2040860661083546 1.705323965099331 0  0.2083333333333333 0.46875 0  0.5070952039991439 0.2211150679997147 0  0.6916302856529919 0.5813591430410241 0  2.265625 1.953125 0  2.2265625 2.2265625 0  1.886424081252096 2.243391360417365 0  1.40625 0.202164758520858 0  0.2269345238095238 0.2269345238095238 0  1.152730869673694 0.5225850378741401 0  1.885631899587912 1.312095130148776 0  1.614808884009367 0.9049784971014416 0  1.890095442220658 0.5126535558463003 0  2.323168682795699 0.46875 0  2.268811725689575 0.2304742875213018 0  0.6002389442105756 1.967426444210576 0  0.1768313172043011 2.03125 0  0.2311882743104251 2.269525712478698 0  2.03125 0.176831317204301 0  2.280262553344767 0.6954945504579233 0  1.979219539285994 1.809922269642997 0  2.336309523809524 1.09375 0  1.09375 2.336309523809524 0  0.9314042474388009 1.662973812215543 0  0.1634067999087722 1.40625 0  2.337090640094896 1.40625 0  1.141616997467638 2.069311773587991 0  0.46875 2.338939559681489 0  1.542440307908715 1.734944797244472 0  1.556713687786879 1.956977865354753 0  0.8264238995344066 1.975424467820646 0  1.466326331454725 1.275271369760862 0  1.655675324257095 0.5444159974393489 0  0.3385416666666666 0.6479255698005697 0  0 0.78125 0  0.5236073939200119 0.984090461540625 0  2.091665741047893 1.519793517904215 0  1.71875 2.5 0  0.5356538886262603 1.623137930505009 0  0 1.09375 0  0.1932884281517095 1.015625 0  0.8569313582417669 1.2198915584249 0  0.8876981284879677 0.8329884081524883 0  1.115618488474214 0.7219586973356271 0  1.186950366204949 1.043465130075318 0  2.057459118787237 1.110823087309335 0  1.830651283878689 2.049810069572418 0  1.689107969301489 1.367247437031697 0  0.4921048768039656 1.298643370653124 0  0.8213975694444444 2.336309523809524 0  2.03125 2.5 0  1.049729400480002 1.283723261332814 0  1.308101375801673 0.6489479469700392 0  2.5 2.34375 0  0.4968777175037714 0.7562964879736076 0  1.40625 2.5 0  1.501347663534097 2.307027627307738 0  1.602813712048603 0.1926218191360736 0  0.8393082906308107 0.463778306132633 0  1.682663349152719 1.598471865581041 0  0.7774174680851571 1.560004941327907 0  1.554204170364662 0.3898593897892066 0  1.842184459051087 0.186443880058197 0  1.358107417651776 1.696381759610015 0  1.18859291992392 1.77598670078022 0  0.1875331222687418 0.7609599743339348 0  1.339536743965101 1.422080365801479 0  0.7788179348750389 0.9955343414928611 0  0.9062978492805438 0.1919636509126373 0  1.256007360640958 0.3160320559396114 0  1.09375 0 0  1.174986727221844 0.1594990293443933 0  2.34375 1.796875 0  2.318026474511116 1.589177949022232 0  2.34375 2.5 0  1.672742954892153 2.332882724550692 0  0.2683637361947215 1.874801596909639 0  2.174770749820102 0.5581009131310781 0  1.443279522965991 0.8870068372898454 0  0.3385416666666667 0.3571428571428572 0  0.78125 0 0  2.060421048269335 2.314363248763811 0  1.088078737088509 0.8967352118723447 0  1.087825368444708 1.454931510884769 0  2.018308232129541 0.8548495425854904 0  1.943987311736842 0.3246298523011434 0  1.71875 0 0  1.85337849796276 1.144833312386208 0  2.3486328125 2.1044921875 0  1.407588788651747 2.042968789119587 0  2.336309523809524 0.865366648092144 0  2.34375 0 0  2.5 0.15625 0  0.15625 2.5 0  0 2.34375 0  0.1638044648294291 1.242263417405867 0  0.356216654757926 1.032569427322806 0  0.3188217956111817 1.355736727000647 0  0.5924956460852111 0.36112522004736 0  0.6594216488965849 0.1603472116132387 0  1.841804599497131 1.72214349266521 0  0.15625 0 0  0 0.15625 0  2.115898634821499 1.894570904464496 0  0.7821877980253907 0.7129993435924866 0  1.003820447087786 0.4516053462784233 0  0.477562948779147 1.138333049293613 0  0.719493678605015 1.305655360135975 0  0.9772457618587566 2.020350128938537 0  0.8764738248887107 1.826219722709673 0  1.254787875123819 2.339010653832026 0  2.343597354852534 1.249982759769001 0  0.78125 2.5 0  0.46875 2.5 0  2.5 1.40625 0  1.09375 2.5 0  2.5 0.78125 0  2.5 1.09375 0  2.03125 0 0  2.5 0.46875 0  1.40625 0 0  0.46875 0 0  0 0.46875 0  0 1.40625 0  0 1.71875 0  0 2.03125 0  2.5 1.71875 0  2.5 2.03125 0  2.005424054645407 1.653223486966518 0  0.1538730573856537 1.559850281736677 0  2.33984375 2.33984375 0  1.166539506212474 1.922878979538754 0  0.3914885633949916 1.65887232812171 0  0.5795503163042564 1.766243562569382 0  0.399533125920212 1.946786875081388 0  0.7866324979014098 2.127719094551316 0  0.3654683023546834 0.1495701132219454 0  0.1527388747131078 0.6116379440619215 0  2.013737577140188 1.391056634712135 0  1.17635437372994 2.213329084238133 0  1.737118141866284 1.010577140843115 0  2.200707118087222 1.164723314085963 0  1.697018908736685 1.993548551451517 0  0.5387621649009668 0.6070503962352419 0  2.032805785855952 0.5330427622570983 0  1.082699501358059 1.667818725183932 0  1.503819781540653 0.5468420196858188 0  2.015409142866072 2.175941657590429 0  1.752057611265444 0.869642097111018 0  0.612251684107783 2.356045720700959 0  1.902817102342857 0.6607642211999982 0  2.159616561739693 0.7867739969338844 0  0.5120038350106624 2.197302352398502 0  1.888200216011548 1.919501662489862 0  1.495909909726654 2.16028358757309 0  0.489139876703609 1.443203008943564 0  0.8819175670410521 0.3301172743913011 0  1.882591144370812 0.8155965192707721 0  1.133979796994841 1.172526771862882 0  2.206217447916667 2.084147135416667 0  2.20361328125 2.36279296875 0  1.395746985657004 1.556054166359645 0  1.704383111516207 1.734750450338683 0  0.9575737847222222 2.36274223823052 0  1.035150984253136 0.1302833343179028 0  1.383966125325753 0.7651479963479179 0  1.64003252158672 0.6824316405528895 0  2.22550785055421 1.487078576356817 0  1.760964431499756 1.48495222505201 0  1.276460980673788 2.004207003584658 0  0.1341477688427096 1.828777507920502 0  1.542261434180652 1.155296658359034 0  1.334627911613854 0.9696897472490321 0  1.30794231473696 1.119420615785191 0  0.7028260459857245 0.4438906910721139 0  1.625757433094055 1.84268057552138 0  0.9818707849053143 1.165603626132254 0  2.0086489901463 1.243134585689553 0  1.934584460420609 2.374094051915812 0  1.798434376789567 2.38671361912528 0  1.206314791201715 1.382064292497919 0  0.6333752893366955 0.7023738550008095 0  0.7796219811205605 1.42573253164258 0  1.564399711917382 1.026040828857629 0  0.3385416666666666 0.4889012896825397 0  0.1041666666666667 0.390625 0  0.989112246382566 1.543537365516289 0  2.025724425454636 0.9846960595520872 0  0.6602885475034063 2.086117390485779 0  1.607130551925032 1.267198646640915 0  0.1317864544877056 0.8896173683400176 0  1.755387840017567 2.230364320056445 0  1.301540702984401 0.1216289692748247 0  1.433170657577442 0.3331052752740999 0  1.500459610550388 0.113513924782439 0  0.6494291520606965 1.029586599619295 0  1.010146149868299 0.794897284196169 0  0.3700844198238017 2.235390157870766 0  0.3360891767780704 2.36656279435396 0  1.876856241037701 1.437150669863757 0  1.778674102957329 1.245979347269706 0  0.5472829890977179 0.1005517127039925 0  0.4669074189005698 0.3416784232954367 0  1.472765289289269 1.850899166481903 0  1.555853593327178 1.608452097912802 0  0.6708955559113426 1.646561631116984 0  0.8164699620322933 0.5924479455478063 0  0.3167738989468366 1.758696809749795 0  0.2788007305565096 1.605499483471246 0  0.7821720982350511 0.181524936294752 0  1.376812251214195 2.313340247908297 0  1.785652202614777 0.5962261755537186 0  1.761467296310972 0.4679567244718574 0  2.2265625 1.8359375 0  2.3828125 1.9140625 0  0.5279531607054191 2.071552361614785 0  2.397573269551114 0.234375 0  2.383578172599618 0.3589298466020009 0  0.1024267304488855 2.265625 0  0.1164218274003825 2.141070153397999 0  0.2696857594953064 2.135405441512016 0  2.164961300137334 0.1375322943529536 0  2.137757548369486 0.2724194778647587 0  2.238873711826398 0.3626419179496562 0  0.1001414910226386 0.234375 0  0.2176339285714286 0.3478422619047619 0  0.2503620791333544 0.1061694061057066 0  2.336445461915368 0.1250451055247424 0  0.2154004640409726 2.3918124
[...]
<PointData  Scalars="f_124-0"> 
<DataArray  type="Float64"  Name="f_124-0"  format="ascii">8.1330070124258788e-02  3.0396698041318732e-01  6.5068882196654979e-02  5.4353251877430120e-02  1.9260298224894448e-01  5.8247558482575387e-02  8.4425049291765336e-02  2.2208845904502977e-01  1.9778099213033301e-01  2.9204863700385358e-01  2.6553223463238779e-01  8.3696326643415017e-02  1.5009942454025357e-01  5.8022491081728453e-02  1.2412407367436937e-01  6.1276842829198847e-02  7.9176685128461044e-02  1.3548761237952969e-01  1.6358904738288185e-01  2.3561840202338291e-01  1.2930460262331667e-01  2.2955588692677201e-01  1.4720299542733919e-01  2.9288866675626951e-01  1.0489252487780543e-01  1.9284231170363791e-01  1.8049076481827087e-01  1.1902852148208876e-01  9.0142439158393747e-02  9.8334107020484840e-02  1.2603835911851971e-01  1.4962771052292073e-01  2.6372514338631947e-01  1.1418887720623334e-01  1.9644379812026841e-01  1.9940495238082578e-01  1.3716544389982713e-01  2.2906803313258647e-01  1.6605108420000889e-01  9.3286411817553552e-02  2.1636778532968587e-01  9.6706845601243652e-02  2.9945724514071914e-01  3.1703697870186343e-01  6.1648556352054081e-02  6.9605789255430983e-02  2.2654220939537054e-01  2.6004489839555583e-01  1.3220663258477533e-01  1.5624391699661808e-01  2.2963420159949449e-01  8.0683469732343416e-02  9.1693416386049401e-02  5.6942769367928386e-02  2.5327109109585849e-01  1.8786126934554104e-01  8.3615657535396862e-02  6.1100563357383175e-02  1.1436151605225965e-01  8.2354765352265283e-02  5.9602674161310487e-02  2.5435260352025912e-01  1.5061800704211725e-01  1.1395922735379645e-01  1.7857535641570627e-01  1.6137015510201849e-01  1.9908799902652699e-01  1.0253367593070213e-01  1.1243452053552593e-01  1.2160879245718298e-01  1.7987349472505715e-01  1.6714138136612428e-01  1.7202356322851747e-01  3.1034751902085006e-01  2.8205319788254268e-01  2.6661612614222602e-01  8.3681140753262717e-02  8.1710006731061019e-02  9.9316073972043409e-02  1.7473722758588148e-01  3.1468843133345176e-01  2.0801488760794071e-01  1.2653617196427702e-01  1.5612447654643999e-01  1.1987719862175472e-01  7.3814406188219675e-02  8.1499648700310928e-02  1.4220455207795496e-01  1.3251742212879336e-01  1.0498596818952538e-01  1.0653732463931498e-01  7.7653295825256610e-02  1.1529118701002439e-01  7.1850135414155886e-02  1.0011500206139246e-01  1.7337139021234055e-01  2.0533599882188713e-01  7.4046675775899892e-02  1.2920414480414374e-01  9.8402329823415291e-02  1.5309888042080466e-01  1.3491985489007868e-01  1.4169834576950119e-01  1.7581203920993982e-01  1.4893484675205435e-01  2.8886565289320892e-01  2.7059538140448913e-01  2.4960867528020980e-01  1.0344134972103322e-01  8.1698623999359218e-02  1.7997463320991552e-01  2.3742056989763763e-01  2.4501586252270369e-01  2.2116809112870389e-01  2.4226324640398356e-01  2.1457658191788231e-01  2.0793613238524422e-01  1.0334762936137867e-01  1.1607443185024309e-01  1.5029880783023011e-01  2.1462694695842485e-01  9.9861339108274952e-02  7.5986413052898813e-02  2.0697372806612049e-01  1.9007618088074973e-01  5.9024796722290024e-02  2.7402824433048828e-01  8.3408244308169427e-02  1.0094474168101389e-01  1.5194905715431908e-01  2.4539299711973023e-01  1.4806575596645477e-01  1.8486158477886902e-01  1.5937203161447108e-01  1.2481302375091330e-01  1.6474407829739757e-01  1.5991350538457536e-01  2.7549027729097431e-01  1.8344733891455228e-01  2.4306886522219134e-01  2.3394706890902559e-01  1.9429206758355380e-01  2.1088931695151056e-01  2.0394271457712776e-01  7.5527040011771379e-02  7.7659519728855320e-02  6.2304424442908055e-02  9.6831307823158380e-02  1.5252227237651858e-01  8.8416911205106460e-02  1.7643500348301142e-01  3.0968449313321311e-01  2.4682563167186844e-01  8.6821675837035775e-02  2.1978481821505097e-01  1.9304106366608975e-01  1.0723252182464878e-01  1.1435489779335473e-01  1.4037159773475544e-01  1.2835720670928658e-01  7.4581095919116186e-02  1.2910960943508801e-01  7.1131626988923197e-02  7.8043191708240520e-02  6.3763198414224023e-02  8.1157095260734766e-02  9.4645058259268208e-02  2.2163357799375180e-01  2.4500496757374798e-01  2.0953663897400363e-01  2.7424382866166647e-01  2.6271002816742817e-01  1.3004267405725398e-01  3.0993588892065588e-01  3.1044384953595816e-01  9.9893959756276490e-02  2.5437235648767598e-01  2.2458236495408829e-01  2.3340807908937655e-01  2.1378858741452936e-01  1.3619493186078130e-01  1.5687894638740990e-01  1.0007782648550563e-01  7.2640054522921549e-02  8.3551201553832569e-02  8.1318529940356071e-02  5.9136666992034639e-02  8.4052863466362024e-02  5.8119033488543935e-02  5.7760577565054781e-02  1.0835553278245909e-01  5.8946015303360043e-02  1.7256698593618736e-01  2.8523638916022953e-01  3.1003606026513403e-01  2.0592184394793153e-01  1.6995456458189978e-01  1.3348540122946709e-01  6.0793137854335488e-02  6.1586525664530899e-02  1.1352758097244135e-01  1.8802187884574442e-01  6.9108854836443315e-02  1.4454432407296314e-01  1.7804370141117851e-01  1.6435128209089167e-01  1.4439870148329062e-01  1.2425217186670237e-01  2.9820258640583380e-01  2.9365183500043279e-01  1.1221334778632387e-01  1.1436855345570406e-01  1.4140365185319242e-01  8.7679906625429571e-02  1.2739653425744224e-01  2.8168118865606206e-01  1.0482302697074015e-01  1.7239737854255693e-01  1.6591498737337526e-01  9.7831346334287958e-02  1.3903028484594751e-01  9.6746878537531097e-02  1.1933615586373916e-01  9.0723288067527733e-02  1.1500537187287083e-01  1.2004284365102609e-01  1.1605997649362944e-01  1.9944039005304404e-01  2.3730769875538860e-01  1.2119129780139057e-01  2.0970857730210557e-01  8.7786050453293046e-02  7.5685150843170693e-02  1.7209770575960512e-01  1.4130149871844308e-01  9.6773547151606992e-02  2.1996055740126250e-01  1.8270283943526908e-01  1.5007918005297610e-01  8.8236191148089352e-02  1.4258363848158537e-01  1.3530905502368895e-01  1.5801483427296759e-01  1.6709588532856817e-01  1.9104467628172353e-01  1.9395717744284838e-01  2.6230764400105355e-01  1.4173019743677939e-01  2.1967758005378799e-01  1.1166456205488440e-01  8.7330586009380595e-02  8.9079501330765365e-02  1.9370572262869368e-01  2.7006497039795985e-01  2.0032393972059115e-01  1.6405307106177830e-01  3.0335166033892991e-01  3.1831266150024473e-01  1.8642574192127156e-01  1.0581785195782455e-01  1.2796217689142694e-01  1.6005638531016264e-01  2.5928625074047307e-01  1.0522802357709887e-01  1.8698454781133458e-01  1.7338319779399788e-01  1.6302703486663264e-01  2.4308676796368164e-01  2.2798232408959726e-01  1.1012033889776753e-01  9.3882221388763509e-02  1.2844969833187625e-01  1.3933825705956460e-01  2.7555491380913716e-01  2.9230397906288319e-01  1.4738850148505073e-01  1.5815870008112859e-01  1.7612619122907786e-01  2.5026198732105537e-01  1.6622786496741979e-01  1.8365758943418278e-01  2.4850239629791152e-01  1.0139606762766790e-01  1.3339797297883443e-01  1.3472609200057725e-01  8.9248882423455925e-02  7.1270976668016503e-02  1.2984024132373670e-01  6.8729078718422126e-02  6.9408578029485690e-02  1.0548069852850382e-01  1.2101739667394740e-01  1.2141321602531953e-01  9.2880747381806225e-02  9.5162710042911963e-02  8.4706758101954133e-02  3.1364953880121060e-01  3.1857637265863070e-01  3.1104049269389183e-01  7.6012072576015485e-02  9.0477784865295049e-02  1.1359687550617650e-01  3.1022687973572893e-01  1.3915477081667574e-01  2.1908619713263558e-01  2.0625175370556070e-01  1.9225661721332674e-01  1.3877886928773467e-01  1.5478844762202365e-01  2.3145494209722500e-01  1.4323158103788478e-01  1.1716603809325707e-01  6.8860964342015538e-02  6.6787726479048473e-02  6.9206316984070010e-02  2.7761253365784649e-01  1.4970466763120066e-01  1.5059362979961868e-01  1.6363383719380209e-01  9.3954466913500179e-02  1.6708326493658829e-01  1.2539715750813590e-01  2.6230600615979127e-01  1.7182758904424789e-01  1.6169555173121147e-01  8.9575747092591890e-02  2.3946777882162384e-01  8.5356925113421633e-02  1.2249396445259836e-01  2.3190604327872794e-01  6.6630905805482296e-02  2.8174155644002069e-01  2.1751818254674926e-01  1.0560681767281528e-01  1.1117556402073402e-01  1.1020028065364275e-01  9.1074781070423966e-02  1.9928169114590208e-01  2.1415480198737086e-01  6.4901621757800010e-02  8.3285019052448367e-02  2.3331673365206365e-01  1.4801952192288523e-01  1.4888012854274643e-01  1.0691018345890715e-01  1.3130646146959471e-01  6.6929371998696266e-02  1.2424052648955061e-01  1.8239901143440715e-01  9.2024522142689275e-02  2.1069364628363652e-01  2.7674759955116374e-01  2.9244087814557929e-01  2.9763991906375964e-01  1.4741132358266518e-01  1.7934949534883282e-01  2.2898658091906479e-01  6.4634884670365461e-02  6.3677561584934012e-02  8.9977166877637182e-02  8.9380008644903669e-02  6.0405161746810376e-02  1.1698999869172717e-01  9.8295611617517542e-02  1.7931023730729431e-01  7.7002867936100228e-02  1.6113616206260187e-01  1.1721990087092403e-01  1.3080703566638838e-01  1.4638625309213615e-01  1.8754092461842564e-01  1.9794190676429632e-01  3.0005974730980084e-01  9.1450979423358669e-02  1.6250393192363172e-01  2.1876217168965384e-01  2.0695418420336037e-01  8.8727833473071963e-02  2.5404944165402538e-01  2.4215807288274149e-01  2.5195964140023891e-01  2.3220298387426555e-01  1.1152946252847096e-01  2.1024827224256304e-01  1.6056513635476613e-01  1.8246638439758942e-01  1.4046858502569021e-01  1.2501573353012377e-01  7.8112877673923192e-02  1.8809905912768701e-01  1.9421125821692178e-01  2.6919271074813228e-01  1.1206231679930700e-01  2.5798661674403661e-01  2.4070580147045195e-01  9.3268475922588398e-02  1.7554742780086890e-01  1.4836108336352297e-01  8.0699731104631120e-02  2.0174396953465695e-01  3.0604342515725952e-01  2.4766409130352121e-01  1.1497642345848154e-01  9.6710851631338468e-02  1.7980659628243778e-01  9.8353734334323886e-02  9.2634442994882729e-02  1.8658515313672328e-01  2.6466712334822656e-01  7.0177783440538363e-02  2.0393741299935081e-01  1.9971685259136562e-01  2.0959765019051654e-01  8.8072326947158108e-02  1.7143762271587956e-01  1.8825021065323178e-01  1.3723674885823015e-01  2.8377036303309444e-01  2.3800573975586181e-01  8.2155637512749555e-02  2.0247256252754559e-01  1.3947163508559135e-01  1.2471611022187457e-01  1.0773966716012422e-01  2.0730637562997345e-01  2.2283046927181821e-01  1.5456881625065608e-01  1.3861714144720949e-01  1.2471880718646565e-01  1.1313368655738379e-01  2.5516279705552636e-01  1.8727569909054897e-01  9.0122687125641768e-02  1.0371421505860899e-01  1.0518746589808844e-01  1.9280342343647058e-01  1.3788528059283117e-01  1.7466608995832969e-01  1.2597134336527316e-01  2.5205565595140123e-01  7.9042807442465585e-02  1.6873570988008940e-01  2.2191840050972619e-01  1.2826527231755300e-01  6.7964342323789409e-02  2.5178542948038612e-01  1.5012302111660683e-01  1.7823122476111952e-01  2.2725937178629557e-01  8.4911162780564028e-02  1.7003591662792489e-01  2.3713988497676772e-01  1.0904125782741675e-01  7.4607561767734032e-02  8.2397354315284846e-02  8.3340635153189305e-02  2.2748121481364597e-01  2.7790247329245232e-01  1.9894984455111214e-01  2.6961545233505829e-01  1.5633374022021124e-01  1.5746060350580821e-01  2.1805901449255535e-01  9.9303845025649776e-02  1.0291632253726804e-01  2.0723806724949012e-01  1.0686986032831511e-01  2.5313563748246248e-01  1.5724776084059960e-01  2.8758894983515321e-01  1.1499330904365097e-01  2.5166548519996457e-01  2.3947780451098338e-01  2.0509188332621758e-01  1.8438549866901305e-01  1.8344773535071671e-01  1.5801406386793082e-01  1.5000599520430757e-01  1.7279359954998214e-01  2.8571052515046913e-01  8.0888153319583225e-02  9.3024377373530046e-02  8.3640592137885675e-02  1.0492213869530577e-01  2.2619205576082210e-01  8.1988663338316795e-02  2.5624955792503928e-01  2.1388311986933109e-01  2.2385899189463068e-01  1.2213711770372683e-01  1.9121959241568737e-01  1.6981577617463386e-01  1.0296319826321912e-01  1.6712580778750941e-01  5.7441435373478449e-02  7.5727669697590108e-02  1.2218162525487197e-01  1.0711769966685873e-01  1.4794894981047696e-01  9.6410197054790037e-02  1.0980026250090046e-01  1.5812058532129872e-01  2.0408949964000453e-01  2.9107469697303939e-01  5.8042431261916917e-02  6.5101609729014145e-02  9.1237919852643193e-02  2.2913783072733121e-01  1.5696008846541204e-01  1.6196225795443883e-01  1.3218175787012837e-01  8.2480939335657047e-02  2.2435748859181781e-01  1.2339357570738339e-01  2.2738116994012941e-01  2.4372544484589384e-01  1.1356414771564631e-01  1.5999570848430864e-01  1.3987256320494060e-01  8.8107672484588090e-02  9.0073134119506210e-02  2.1040441324338324e-01  2.4349854527894155e-01  1.9188421511461493e-01  7.5552696686003493e-02  1.1475140392684087e-01  1.5112610503546522e-01  1.3953728949827296e-01  1.3072256637059343e-01  1.2531375634495240e-01  1.3359093851034015e-01  9.8866876959500763e-02  9.6410586704360951e-02  1.9696990973362508e-01  5.8195429857984177e-02  1.0011913602861013e-01  1.0146638586649676e-01  1.1343029004644477e-01  6.7255326971030149e-02  7.9889229392444347e-02  6.7997657651111515e-02  6.4702392394470135e-02  1.2111571778113317e-01  9.5704544698636318e-02  2.3586438470510762e-01  2.3557736009179278e-01  1.5297757060963874e-01  1.0541119473761300e-01  8.7858314499300816e-02  1.4984298902430521e-01  6.7317604766758660e-02  8.0557530617059003e-02  1.8742897307893885e-01  1.7980880185063103e-01  7.6630723881751336e-02  1.1511910336276732e-01  1.6528497092027780e-01  2.3398143628751727e-01  1.1866007800821200e-01  1.0390621795203990e-01  8.4291854169533484e-02  3.1647859578663312e-01  3.1212434645608778e-01  3.0076001965560489e-01  1.5163911321629003e-01  6.8714271298439822e-02  1.4161513611098023e-01  2.6110040182570093e-01  6.4220552655942065e-02  9.8114311202513446e-02  1.6223965642220017e-01  1.4292710216169704e-01  1.2042708131403364e-01  6.4084850362120319e-02  1.6549388862284148e-01  9.7599254682069772e-02  6.7972419890167432e-02  2.6848663152788732e-01  1.9056725243855657e-01  1.6632094604744316e-01  8.1877136925141300e-02  6.2888436377890405e-02  1.6242444697276667e-01  1.3436996205478405e-01  2.7246084177972296e-01  1.5874464485278653e-01  6.1443052596146602e-02  1.9231283902099874e-01  2.4914560772739910e-01  2.0815921924419342e-01  1.4651958901836640e-01  2.1705527870058855e-01  1.9770263638270150e-01  2.1506206148014692e-01  8.4176969556537876e-02  1.2278688034146536e-01  3.1132768304662972e-01  2.0974762503567848e-01  2.6298873898515457e-01  2.6631587807727314e-01  2.5971894111447746e-01  2.8320019146681302e-01  2.8037991433593951e-01  6.3488063055497992e-02  5.7448893933542529e-02  1.8640568341270683e-01  1.9394419211377148e-01  1.8944956655983033e-01  2.0115120159991007e-01  3.1722050535448454e-01  1.3449596805216088e-01  7.6092203996506846e-02  2.2107450040677079e-01  9.1473285778688990e-02  8.1534510274040725e-02  8.1209122375281523e-02  1.3844063107476259e-01  9.1152365461923041e-02  2.1875503461422319e-01  1.0646777756240043e-01  1.7309017326455028e-01  1.0642070039088435e-01  9.9835271819289487e-02  3.0724126749326380e-01  3.0702532240504138e-01  1.0189973519744193e-01  1.8215396195403627e-01  7.4305395441610855e-02  3.1269976132665994e-01  1.2263598367043592e-01  6.3618617979639219e-02  2.6286336669460941e-01  2.6167669261228771e-01  1.4681703009311348e-01  1.0910776785055680e-01  1.7902793191631095e-01  2.1611539635096833e-01  7.8184130446389721e-02  3.0101896038227433e-01  8.8415536467266076e-02  1.0476548455562891e-01  2.2447257332697290e-01  9.4442138626160230e-02  2.9606573160504618e-01  1.7408161741485900e-01  1.2078388547195706e-01  1.3302713863175225e-01  1.5328478589576996e-01  1.0666117387816446e-01  1.3926953292875810e-01  1.5870540072140385e-01  2.1328267425702671e-01  1.5446467040902076e-01  1.1848455804743190e-01  7.3557359357640781e-02  6.4081810684695886e-02  1.2305770932067919e-01  2.2191205536857128e-01  8.9393538840322112e-02  6.5278125696238767e-02  2.0129801466891087e-01  6.5793338200805934e-02  8.3757871034190176e-02  7.3305545083469703e-02  8.7141035454962712e-02  8.1632015952572259e-02  8.3627956177150284e-02  1.7928794846416216e-01  8.3893091041373200e-02  6.0559265347617630e-02  1.3115158586733394e-01  1.4852584309357705e-01  5.7918506627055340e-02  5.8706252400931677e-02  5.9287037705026836e-02  2.4514190671265201e-01  2.2944898877962350e-01  2.1460138896958594e-01  8.4296181137020906e-02  2.8251834205893628e-01  2.3804327777625331e-01  1.1642450714008228e-01  1.4262846546629435e-01  8.0753586642845307e-02  3.0832641196374388e-01  1.0361637038722032e-01  6.2253574093978636e-02  2.7664797405073371e-01  1.6518149091478462e-01  3.1395517903025100e-01  3.1765436762446098e-01  8.0600363323280216e-02  6.0475898090991694e-02  5.6762496115738248e-02  5.7576529602409922e-02  1.9613984791996714e-01  8.2493051419966434e-02  3.0094842387866966e-01  6.1352539382361647e-02  6.1958097066460147e-02  5.9941732933921153e-02  1.1998745276478139e-01  1.1499315248065674e-01  1.7777650613399346e-01  8.9360797510429010e-02  1.7004366323266532e-01  9.1187267931233190e-02  2.7583185217332945e-01  2.7814445916790020e-01  2.8857421615013545e-01  8.6225102139298029e-02  2.8805476624541093e-01  2.4708377423591973e-01  2.9610490509146042e-01  1.3526030546808326e-01  2.1823882174787590e-01  2.1690106719331373e-01  1.2826234009157866e-01  1.9792262162433655e-01  1.8875687295860086e-01  1.8146561826843552e-01  2.1292080151933826e-01  2.8480634331581389e-01  3.0182444067426512e-01  8.1311559391276725e-02  1.4217547044342360e-01  1.4355066659007565e-01  9.0788240837130232e-02  2.6663534569359254e-01  6.5397138295547191e-02  1.9112489768698299e-01  1.3190109118596752e-01  2.1473354299870845e-01  2.5443918740745725e-01  1.7677655253731689e-01  1.3901787389375661e-01  1.7227681008116039e-01  2.3872136975597116e-01  2.2619483392125567e-01  1.1692255531847540e-01  7.5556235493169061e-02  2.5745288010220324e-01  9.1738345647353822e-02  8.4142476046797129e-02  1.9540220552877574e-01  1.4760398163885291e-01  2.4455000464450022e-01  1.4328396067498572e-01  2.6939974564722019e-01  8.5891732026236137e-02  1.7379872204177416e-01  1.6778405010584937e-01  1.1786249085102760e-01  1.2198352442945666e-01  1.1737665571779027e-01  1.0658897654941631e-01  1.0700844042251893e-01  1.2112254940198361e-01  2.0599246873780533e-01  1.3044003870369644e-01  1.6303969112266345e-01  1.9070746713059333e-01  1.5320291108694017e-01  1.4871333748772461e-01  9.6615137023352213e-02  1.7228156897191091e-01  1.2921560672091870e-01  1.2299152590163248e-01  1.2971226217680101e-01  1.3720421257122989e-01  1.8524949836565147e-01  1.8105659621590195e-01  1.6992460673919818e-01  2.1442728498346705e-01  9.1101037678197605e-02  1.0869228553270606e-01  1.0689683329243088e-01  1.1291769266717164e-01  1.1707160169633304e-01  1.0818835069362748e-01  1.0000189891309086e-01  1.6189621927732409e-01  1.6984561523319711e-01  8.7069129465418546e-02  6.4914364529533350e-02  9.0817918174128487e-02  1.6683159454943547e-01  2.0002405223924852e-01  2.2463544159368179e-01  1.5909985089596598e-01  1.0988604947816030e-01  2.4855448180743617e-01  1.8326303880349903e-01  9.6005763349120157e-02  2.7090214616828573e-01  1.1966518936893383e-01  1.0119369803982131e-01  1.0013021212937442e-01  6.7902548821577161e-02  9.5562740948366504e-02  8.6520141026243391e-02  1.9988948636963144e-01  1.6934628853546757e-01  1.8483675929032908e-01  2.1466100602233107e-01  1.3014011121313007e-01  1.2145883932233147e-01  1.5682051215561535e-01  7.5215066942505376e-02  2.0256652978266151e-01  1.7650352524629720e-01  1.9915540162949993e-01  2.0676642572223439e-01  1.0482853635550905e-01  8.9044315498462964e-02  1.1198002103638094e-01  8.5555735042102496e-02  1.1142636523522996e-01  8.0899176675822485e-02  8.1167175506351275e-02  1.2402082185171730e-01  1.5653061773183097e-01  7.4898341349161568e-02  1.0046125384305822e-01  1.3381467197340011e-01  1.0315564646511163e-01  1.1184445382178047e-01  1.1966519176076094e-01  1.0093847840208381e-01  1.97955278452