<?xml version="1.0"?>
<VTKFile type="UnstructuredGrid"  version="0.1"  >
<UnstructuredGrid>
<Piece  NumberOfPoints="6486" NumberOfCells="12696">
<Points>
<DataArray  type="Float64"  NumberOfComponents="3"  format="ascii">0 5 0  0 0 0  5 0 0  5 5 0  2.5 0 0  5 2.5 0  2.5 5 0  0 2.5 0  2.5 2.5 0  0 1.25 0  1.25 0 0  1.25 5 0  0 3.75 0  5 1.25 0  3.75 0 0  5 3.75 0  3.75 5 0  3.541666666666667 1.458333333333333 0  1.458333333333333 3.541666666666667 0  1.875 1.25 0  3.75 3.125 0  1.284722222222222 2.326388888888889 0  2.683189655172414 3.767959770114943 0  0.9375 0.9375 0  4.0625 4.0625 0  0.7252209595959597 3.026357323232324 0  2.763480392156863 0.9129901960784315 0  1.875 4.345238095238095 0  4.345238095238095 1.875 0  4.192708333333333 0.8072916666666664 0  0.8072916666666665 4.192708333333334 0  3.368055555555555 2.326388888888889 0  0.6837606837606839 1.738782051282051 0  3.285485245626782 4.324328415208927 0  2.551239698778062 1.693130150610969 0  1.827256944444444 2.868923611111111 0  3.464875022477093 0.6813924607921316 0  1.942880513719175 2.059558626187995 0  3.04563492063492 2.971230158730159 0  4.375 3.4375 0  2.13639445139758 0.5994472256987903 0  4.272228422619047 2.606956845238095 0  0.625 0 0  0 0.625 0  5 4.375 0  4.375 5 0  0.6400043240752655 2.384646170113389 0  1.347691225855598 1.660875475110776 0  3.515783617857982 3.723905460714006 0  3.125 0 0  1.875 0 0  0.625 5 0  4.375 0 0  5 1.875 0  0 1.875 0  0 3.125 0  1.875 5 0  5 0.625 0  0 4.375 0  3.125 5 0  5 3.125 0  1.489644181965304 0.6007147273217681 0  2.054597701149425 3.742302955665024 0  2.662520990197781 4.39452575763237 0  2.415835363784578 3.165530021913244 0  0.8679986894865213 3.602373689486522 0  1.267459753787878 2.886186079545454 0  4.099702380952381 1.365327380952381 0  1.316964285714286 4.438244047619047 0  3.7915135293491 1.959691594758709 0  2.875141124191255 2.118761176511833 0  3.00418010501169 1.397414179299248 0  0.4081721322167092 3.410647930198662 0  0.4166666666666666 0.9375 0  1.014190407998288 0.4422301359994293 0  1.383260571305984 1.162718286082048 0  4.53125 3.90625 0  4.453125 4.453125 0  3.772848162504192 4.48678272083473 0  2.8125 0.404329517041716 0  0.4538690476190476 0.4538690476190476 0  2.305461739347387 1.04517007574828 0  3.771263799175824 2.624190260297553 0  3.229617768018734 1.809956994202883 0  3.780190884441317 1.025307111692601 0  4.646337365591398 0.9375 0  4.537623451379149 0.4609485750426037 0  1.200477888421151 3.934852888421152 0  0.3536626344086022 4.0625 0  0.4623765486208503 4.539051424957397 0  4.0625 0.353662634408602 0  4.560525106689535 1.390989100915847 0  3.958439078571988 3.619844539285994 0  4.672619047619047 2.1875 0  2.1875 4.672619047619047 0  1.862808494877602 3.325947624431087 0  0.3268135998175443 2.8125 0  4.674181280189791 2.8125 0  2.283233994935276 4.138623547175983 0  0.9375 4.677879119362977 0  3.08488061581743 3.469889594488945 0  3.113427375573758 3.913955730709506 0  1.652847799068813 3.950848935641292 0  2.932652662909449 2.550542739521724 0  3.311350648514189 1.088831994878698 0  0.6770833333333333 1.295851139601139 0  0 1.5625 0  1.047214787840024 1.96818092308125 0  4.183331482095785 3.03958703580843 0  3.4375 5 0  1.071307777252521 3.246275861010018 0  0 2.1875 0  0.386576856303419 2.03125 0  1.713862716483534 2.439783116849799 0  1.775396256975935 1.665976816304977 0  2.231236976948428 1.443917394671254 0  2.373900732409897 2.086930260150635 0  4.114918237574474 2.221646174618671 0  3.661302567757379 4.099620139144836 0  3.378215938602977 2.734494874063393 0  0.9842097536079312 2.597286741306247 0  1.642795138888889 4.672619047619047 0  4.0625 5 0  2.099458800960004 2.567446522665629 0  2.616202751603346 1.297895893940078 0  5 4.6875 0  0.9937554350075428 1.512592975947215 0  2.8125 5 0  3.002695327068194 4.614055254615477 0  3.205627424097207 0.3852436382721472 0  1.678616581261621 0.927556612265266 0  3.365326698305438 3.196943731162083 0  1.554834936170314 3.120009882655813 0  3.108408340729323 0.7797187795784133 0  3.684368918102174 0.3728877601163941 0  2.716214835303553 3.39276351922003 0  2.37718583984784 3.551973401560441 0  0.3750662445374837 1.52191994866787 0  2.679073487930202 2.844160731602957 0  1.557635869750078 1.991068682985722 0  1.812595698561088 0.3839273018252746 0  2.512014721281916 0.6320641118792227 0  2.1875 0 0  2.349973454443689 0.3189980586887866 0  4.6875 3.59375 0  4.636052949022233 3.178355898044465 0  4.6875 5 0  3.345485909784306 4.665765449101383 0  0.536727472389443 3.749603193819277 0  4.349541499640203 1.116201826262156 0  2.886559045931982 1.774013674579691 0  0.6770833333333334 0.7142857142857143 0  1.5625 0 0  4.120842096538671 4.628726497527622 0  2.176157474177018 1.793470423744689 0  2.175650736889416 2.909863021769539 0  4.036616464259081 1.709699085170981 0  3.887974623473683 0.6492597046022868 0  3.4375 0 0  3.70675699592552 2.289666624772415 0  4.697265625 4.208984375 0  2.815177577303495 4.085937578239174 0  4.672619047619047 1.730733296184288 0  4.6875 0 0  5 0.3125 0  0.3125 5 0  0 4.6875 0  0.3276089296588581 2.484526834811734 0  0.712433309515852 2.065138854645612 0  0.6376435912223634 2.711473454001295 0  1.184991292170422 0.7222504400947201 0  1.31884329779317 0.3206944232264773 0  3.683609198994263 3.44428698533042 0  0.3125 0 0  0 0.3125 0  4.231797269642997 3.789141808928991 0  1.564375596050781 1.425998687184973 0  2.007640894175573 0.9032106925568466 0  0.955125897558294 2.276666098587227 0  1.43898735721003 2.611310720271951 0  1.954491523717513 4.040700257877075 0  1.752947649777421 3.652439445419346 0  2.509575750247638 4.678021307664052 0  4.687194709705067 2.499965519538002 0  1.5625 5 0  0.9375 5 0  5 2.8125 0  2.1875 5 0  5 1.5625 0  5 2.1875 0  4.0625 0 0  5 0.9375 0  2.8125 0 0  0.9375 0 0  0 0.9375 0  0 2.8125 0  0 3.4375 0  0 4.0625 0  5 3.4375 0  5 4.0625 0  4.010848109290813 3.306446973933037 0  0.3077461147713075 3.119700563473354 0  4.6796875 4.6796875 0  2.333079012424948 3.845757959077508 0  0.7829771267899832 3.317744656243421 0  1.159100632608513 3.532487125138763 0  0.799066251840424 3.893573750162776 0  1.57326499580282 4.255438189102632 0  0.7309366047093668 0.2991402264438908 0  0.3054777494262156 1.223275888123843 0  4.027475154280377 2.78211326942427 0  2.35270874745988 4.426658168476266 0  3.474236283732569 2.021154281686229 0  4.401414236174444 2.329446628171927 0  3.39403781747337 3.987097102903034 0  1.077524329801934 1.214100792470484 0  4.065611571711903 1.066085524514197 0  2.165399002716117 3.335637450367864 0  3.007639563081306 1.093684039371638 0  4.030818285732145 4.351883315180857 0  3.504115222530889 1.739284194222036 0  1.224503368215566 4.712091441401919 0  3.805634204685714 1.321528442399996 0  4.319233123479386 1.573547993867769 0  1.024007670021325 4.394604704797005 0  3.776400432023095 3.839003324979723 0  2.991819819453308 4.320567175146181 0  0.9782797534072181 2.886406017887129 0  1.763835134082104 0.6602345487826022 0  3.765182288741625 1.631193038541544 0  2.267959593989681 2.345053543725764 0  4.412434895833333 4.168294270833333 0  4.4072265625 4.7255859375 0  2.791493971314009 3.11210833271929 0  3.408766223032414 3.469500900677365 0  1.915147569444444 4.725484476461039 0  2.070301968506271 0.2605666686358055 0  2.767932250651506 1.530295992695836 0  3.280065043173439 1.364863281105779 0  4.45101570110842 2.974157152713635 0  3.521928862999512 2.96990445010402 0  2.552921961347576 4.008414007169315 0  0.2682955376854191 3.657555015841003 0  3.084522868361304 2.310593316718068 0  2.669255823227708 1.939379494498064 0  2.615884629473921 2.238841231570381 0  1.405652091971449 0.8877813821442277 0  3.25151486618811 3.68536115104276 0  1.963741569810629 2.331207252264507 0  4.017297980292599 2.486269171379106 0  3.869168920841219 4.748188103831625 0  3.596868753579134 4.77342723825056 0  2.41262958240343 2.764128584995838 0  1.266750578673391 1.404747710001619 0  1.559243962241121 2.85146506328516 0  3.128799423834764 2.052081657715259 0  0.6770833333333333 0.9778025793650794 0  0.2083333333333333 0.78125 0  1.978224492765132 3.087074731032578 0  4.051448850909273 1.969392119104174 0  1.320577095006813 4.172234780971559 0  3.214261103850064 2.534397293281829 0  0.2635729089754111 1.779234736680035 0  3.510775680035133 4.460728640112889 0  2.603081405968802 0.2432579385496493 0  2.866341315154884 0.6662105505481998 0  3.000919221100777 0.2270278495648781 0  1.298858304121393 2.05917319923859 0  2.020292299736597 1.589794568392338 0  0.7401688396476035 4.470780315741533 0  0.6721783535561408 4.733125588707921 0  3.753712482075402 2.874301339727514 0  3.557348205914658 2.491958694539413 0  1.094565978195436 0.2011034254079851 0  0.9338148378011396 0.6833568465908735 0  2.945530578578538 3.701798332963805 0  3.111707186654356 3.216904195825605 0  1.341791111822685 3.293123262233967 0  1.632939924064587 1.184895891095613 0  0.6335477978936732 3.517393619499591 0  0.5576014611130192 3.210998966942492 0  1.564344196470102 0.3630498725895039 0  2.75362450242839 4.626680495816594 0  3.571304405229554 1.192452351107437 0  3.522934592621944 0.9359134489437148 0  4.453125 3.671875 0  4.765625 3.828125 0  1.055906321410838 4.14310472322957 0  4.795146539102229 0.46875 0  4.767156345199235 0.7178596932040019 0  0.2048534608977711 4.53125 0  0.232843654800765 4.282140306795998 0  0.5393715189906129 4.270810883024032 0  4.329922600274667 0.2750645887059072 0  4.275515096738972 0.5448389557295173 0  4.477747423652795 0.7252838358993123 0  0.2002829820452772 0.46875 0  0.4352678571428572 0.6956845238095237 0  0.5007241582667088 0.2123388122114133 0  4.672890923830735 0.2500902110494848 0  0.4308009280819452 4.783624996516437 0  2.104871305393774 4.438653689007242 0  0.2274454167838428 0.2274454167838428 0  3.446466574593436 0.4359605369011901 0  2.12354112127588 1.217588426759619 0  2.309175236825235 0.7888355970690434 0  2.556178570281936 1.054299163237582 0  0.578683248637
[...]
<PointData  Scalars="f_800-0"> 
<DataArray  type="Float64"  Name="f_800-0"  format="ascii">-1.1497688003077988e-01  -2.7990730877634828e-01  -1.1088531473142199e-01  -1.0550055249698791e-01  -1.9580936337475063e-01  -1.1071742672544362e-01  -1.1232340165427422e-01  -1.9685929788868298e-01  -1.9149031541139855e-01  -2.3931399263051764e-01  -2.3852852781846426e-01  -1.1135562458237531e-01  -1.5393815776717965e-01  -1.1072206034362836e-01  -1.5319354572932528e-01  -1.1096997000664852e-01  -1.1179808759706153e-01  -1.6012331689909828e-01  -1.6131352842152399e-01  -2.1722413803582585e-01  -1.5319909184772337e-01  -2.0253843956862638e-01  -1.5347682953623901e-01  -2.4570431591149511e-01  -1.3742430571459752e-01  -1.7885682255589216e-01  -1.8666695550271878e-01  -1.3443660700623400e-01  -1.3287214976850742e-01  -1.3783596877712664e-01  -1.4023788876854873e-01  -1.6641229773283014e-01  -2.2257845203889901e-01  -1.3457969176023726e-01  -1.9416229468697915e-01  -1.8406166963885034e-01  -1.6266368369856246e-01  -2.0854089217369196e-01  -1.7377916731417692e-01  -1.3212446520110960e-01  -2.0818857089564222e-01  -1.3539458235397950e-01  -2.5985665707356148e-01  -2.6046724879984168e-01  -1.1079449799071800e-01  -1.1125547508748537e-01  -2.0079229647970087e-01  -2.2404912090946738e-01  -1.5212622627701447e-01  -1.7413650288173965e-01  -2.1697902439965647e-01  -1.1395966248614446e-01  -1.3186607283896198e-01  -1.1049681955106831e-01  -2.1803806786534974e-01  -1.7538892491416697e-01  -1.1208805226343144e-01  -1.1080150746602108e-01  -1.3553883452104798e-01  -1.1208976656657904e-01  -1.1075367782072902e-01  -2.3033388331745466e-01  -1.5462242436389367e-01  -1.3231078486092057e-01  -1.7400289056783355e-01  -1.5915414520578439e-01  -1.8383593417221722e-01  -1.4106048474141916e-01  -1.3096347847805445e-01  -1.5180651578444840e-01  -1.8313295732484350e-01  -1.7860284966795462e-01  -1.6567680093125048e-01  -2.4984699924975323e-01  -2.4658308882135416e-01  -2.3311478600172347e-01  -1.2665175059239642e-01  -1.2394880874656525e-01  -1.2874635895242817e-01  -1.8506318320554094e-01  -2.6267490944754113e-01  -2.0259985783976103e-01  -1.5273200939742693e-01  -1.7106151244711304e-01  -1.5197239233433593e-01  -1.2255288012899289e-01  -1.2634995869839172e-01  -1.4783303936868253e-01  -1.4327287541031639e-01  -1.2708585544603246e-01  -1.4242526075201295e-01  -1.2525260734838858e-01  -1.4494187629713404e-01  -1.2168336406005387e-01  -1.2326585111234845e-01  -1.6865295419310736e-01  -1.8617399788036296e-01  -1.2163037625693195e-01  -1.4110064792683877e-01  -1.2237886226764245e-01  -1.6232685557158691e-01  -1.4851028633643043e-01  -1.4743501665567615e-01  -1.8051473600569948e-01  -1.6794194322467168e-01  -2.3761738577519553e-01  -2.2868867929040204e-01  -2.1474560674442411e-01  -1.3874280837812444e-01  -1.1197256235330119e-01  -1.7131464502756630e-01  -2.0740557704425927e-01  -2.1315659081680691e-01  -1.9859990748514511e-01  -2.1832951810648116e-01  -2.0506337034906405e-01  -1.9934620811491505e-01  -1.4063610068274399e-01  -1.4103978358412647e-01  -1.6594385800068207e-01  -1.9344152069956780e-01  -1.2268420372157107e-01  -1.1164895282991584e-01  -1.9385872474853652e-01  -1.9205711082487703e-01  -1.0913601497405678e-01  -2.3004580216852183e-01  -1.1224702126935306e-01  -1.2503717055534627e-01  -1.7148467003304813e-01  -2.2391365348903539e-01  -1.6401271579283341e-01  -1.7578355423510328e-01  -1.7493882377138620e-01  -1.5507955204002111e-01  -1.6612670612990638e-01  -1.6084652676650771e-01  -2.2997487307340120e-01  -1.8195619688896827e-01  -2.1371251729370311e-01  -2.1923327348087626e-01  -1.9522425159828963e-01  -2.0629223347523198e-01  -2.0067980262124666e-01  -1.2146008961547854e-01  -1.2304726752971690e-01  -1.0945763992353268e-01  -1.2288846889604857e-01  -1.5391242477371581e-01  -1.3244560420714427e-01  -1.8291473922915183e-01  -2.5392951462014074e-01  -2.2779942639757259e-01  -1.2323153366446604e-01  -2.0664634683178135e-01  -1.8267692044189993e-01  -1.4322715550348869e-01  -1.4814494397809447e-01  -1.6363913758817414e-01  -1.5476049315058082e-01  -1.2040371208214087e-01  -1.4284779248122992e-01  -1.2150258153166991e-01  -1.2124279794031756e-01  -1.1088132661212950e-01  -1.1533198347287234e-01  -1.2485876453750329e-01  -1.9727972568662552e-01  -2.1153202471218011e-01  -1.8954338529260537e-01  -2.4076933269264039e-01  -2.3616667351752121e-01  -1.5368724544096191e-01  -2.7055137154025422e-01  -2.7123220232295897e-01  -1.3611995867681839e-01  -2.2598366865730940e-01  -2.1270179949354684e-01  -2.0429069648061465e-01  -1.9295654579854973e-01  -1.4453991281458184e-01  -1.5760074039071917e-01  -1.2291619265664480e-01  -1.2116121672032344e-01  -1.1239570611007699e-01  -1.1198048985420708e-01  -1.1079291888800247e-01  -1.1204645711724928e-01  -1.1054564693160124e-01  -1.1057275623728334e-01  -1.4251637107487131e-01  -1.1090218724420087e-01  -1.8488682362139969e-01  -2.4916011721269338e-01  -2.4989840383437531e-01  -1.8605482659332434e-01  -1.6465717091477006e-01  -1.4245140483518925e-01  -1.1086005519277460e-01  -1.1100258305635535e-01  -1.4439415395135954e-01  -1.7558369081457142e-01  -1.1620168973885113e-01  -1.5105536796054281e-01  -1.6893394219891947e-01  -1.6167137650895971e-01  -1.4936330298358547e-01  -1.3721662460650894e-01  -2.5623547782095385e-01  -2.4015178388321445e-01  -1.4394372792390620e-01  -1.3168200883637815e-01  -1.6268946806794979e-01  -1.3082690456571908e-01  -1.4556345709624277e-01  -2.3790075101371197e-01  -1.4215851322768258e-01  -1.6820981586775999e-01  -1.7838082904284847e-01  -1.3156731261505827e-01  -1.6151288680558706e-01  -1.2212445546500383e-01  -1.5117693184969716e-01  -1.3358561486169956e-01  -1.3308637312617169e-01  -1.4619906083489276e-01  -1.3467837003712479e-01  -1.8365073020166744e-01  -2.2101556725121208e-01  -1.5249551007328738e-01  -1.9813113654046274e-01  -1.2857036112698048e-01  -1.1868367491308630e-01  -1.7422917283664460e-01  -1.5897776743209546e-01  -1.2109483585439380e-01  -2.1036023033308532e-01  -1.8681802051749341e-01  -1.6911094045811617e-01  -1.2935488945879020e-01  -1.6083948926209479e-01  -1.4539910759454400e-01  -1.5715022024474781e-01  -1.7602367237367908e-01  -1.9014456360409759e-01  -1.9148841087949614e-01  -2.3321704639390967e-01  -1.5522647241842277e-01  -2.0145544618611655e-01  -1.4413360144220561e-01  -1.2001148249686408e-01  -1.1927811047190459e-01  -1.8643885498830054e-01  -2.3136902985502350e-01  -1.8477042729319956e-01  -1.7457887016297208e-01  -2.4754982856795174e-01  -2.5513685860928775e-01  -1.7666086169316897e-01  -1.4281616199233879e-01  -1.3986006006287921e-01  -1.7154831903419515e-01  -2.2126728675246621e-01  -1.2985951564344247e-01  -1.9221947555052163e-01  -1.8310883524722957e-01  -1.7848490232187264e-01  -2.1160180510209095e-01  -2.1211049198925586e-01  -1.2938248134185792e-01  -1.2054146429354201e-01  -1.5322634190736381e-01  -1.6002507406424935e-01  -2.4382021509316684e-01  -2.4896799433055736e-01  -1.5569302056514639e-01  -1.6835102294623749e-01  -1.6982700289953015e-01  -2.2542230806514205e-01  -1.6215137721092168e-01  -1.7254141829497444e-01  -2.2782402160458537e-01  -1.2451686651724246e-01  -1.5912365636757766e-01  -1.6085220963984365e-01  -1.2938478167122303e-01  -1.1885459348494309e-01  -1.4091863173454788e-01  -1.1750066185682706e-01  -1.1862402596116971e-01  -1.2969107345882025e-01  -1.3562989962283814e-01  -1.3622305845192209e-01  -1.3342689902848773e-01  -1.3517617336766163e-01  -1.2830399387250835e-01  -2.6514457369119088e-01  -2.5704994989986862e-01  -2.6411013428919711e-01  -1.2175099758571802e-01  -1.2106039613803850e-01  -1.3114371793238330e-01  -2.7080106113265906e-01  -1.6317238540881945e-01  -2.0873570062546767e-01  -2.0238005335089704e-01  -1.9402952408576415e-01  -1.4667301488403611e-01  -1.6816140459250359e-01  -2.0503125996108423e-01  -1.4937376501785088e-01  -1.4918507072509776e-01  -1.1917784845612880e-01  -1.1828061154942261e-01  -1.1714708824038385e-01  -2.4027145932315064e-01  -1.5287272483765763e-01  -1.5278076521992850e-01  -1.7633216464471646e-01  -1.3252869777356585e-01  -1.7513757983170089e-01  -1.5514711256232899e-01  -2.2215738871545151e-01  -1.6777236675962595e-01  -1.6155529696648807e-01  -1.3292830574684178e-01  -2.2244961286523443e-01  -1.2922005223987265e-01  -1.3757010985105222e-01  -2.0463072548073516e-01  -1.1824182250082869e-01  -2.3400128845158455e-01  -1.9500175220788540e-01  -1.3960196692737681e-01  -1.4178250281480789e-01  -1.4528846617528637e-01  -1.1768997013567362e-01  -1.8281285731852512e-01  -1.9151804618655152e-01  -1.1607889696136586e-01  -1.2741348402578251e-01  -2.0840725480618813e-01  -1.6885438175703016e-01  -1.6779848780397788e-01  -1.3545249480789784e-01  -1.5827362956208660e-01  -1.1616119749743686e-01  -1.4170160722767808e-01  -1.8469968523498601e-01  -1.1923845738527222e-01  -1.9212886261358961e-01  -2.3009909818721505e-01  -2.4203679139755280e-01  -2.4302908122030714e-01  -1.6794367415449246e-01  -1.7007778799920500e-01  -2.0207200955627294e-01  -1.1606831790972878e-01  -1.1610359319909409e-01  -1.1726590307225263e-01  -1.2121063911000626e-01  -1.1109516541288762e-01  -1.4592695520724239e-01  -1.3538450047065195e-01  -1.8611258902488714e-01  -1.1631927019253929e-01  -1.7646374855001976e-01  -1.3875940841616830e-01  -1.4133667155964197e-01  -1.5075359130106503e-01  -1.8583739011090020e-01  -1.8114472666151951e-01  -2.5426836975467532e-01  -1.2926683019546822e-01  -1.6744557857403314e-01  -2.0344490588968922e-01  -1.9942389507962241e-01  -1.1735897400650681e-01  -2.1870897994358077e-01  -2.2005604847186191e-01  -2.2247290529501401e-01  -2.1251726529996176e-01  -1.4637042041061443e-01  -1.9130804333472706e-01  -1.6101642783547301e-01  -1.7538153060546202e-01  -1.4793062726190148e-01  -1.3805981705571457e-01  -1.2559948146690503e-01  -1.7717483622343916e-01  -1.9520180482030464e-01  -2.3961472443667009e-01  -1.3042814657988738e-01  -2.1957933760211909e-01  -2.1507262839370253e-01  -1.3220675452003280e-01  -1.7904295373132195e-01  -1.6922788766522381e-01  -1.2471202901245904e-01  -1.8761259204365796e-01  -2.4704865472488549e-01  -2.1465420977263039e-01  -1.4758098048339030e-01  -1.3628313284738500e-01  -1.7749740263274605e-01  -1.3745376285954872e-01  -1.2024074542441208e-01  -1.7636947050783383e-01  -2.2466562777053842e-01  -1.1574543526524753e-01  -1.9989191850589602e-01  -1.9682629953730205e-01  -2.0142095365720389e-01  -1.3162299113050552e-01  -1.6512243950391922e-01  -1.7656739073512595e-01  -1.5877370428381196e-01  -2.3612974867773431e-01  -2.0737026003736739e-01  -1.1156856591921095e-01  -1.9309653020911413e-01  -1.4955373786182768e-01  -1.4989703891134251e-01  -1.2984867341681289e-01  -1.8904451833014735e-01  -1.9861785175637622e-01  -1.5511242758019209e-01  -1.5868962431517655e-01  -1.4677378977151592e-01  -1.4110460892296384e-01  -2.3309885417458329e-01  -1.8051199987217603e-01  -1.1732710735828446e-01  -1.2575172502032719e-01  -1.4203924635299831e-01  -1.9485942478614937e-01  -1.4566451228456664e-01  -1.8540206147476973e-01  -1.4145804293538738e-01  -2.3054881186728896e-01  -1.2610532162494678e-01  -1.6368949864283758e-01  -2.0654467348637764e-01  -1.5687528128552156e-01  -1.1424250717555753e-01  -2.1850971903207556e-01  -1.6358733417354196e-01  -1.8518260895162464e-01  -2.1510593230313316e-01  -1.2656486593310898e-01  -1.6752394750622845e-01  -2.0775608303575446e-01  -1.2961445290670026e-01  -1.2103071770983684e-01  -1.2849408504728363e-01  -1.1199576420012163e-01  -2.1229712077717608e-01  -2.3105243287542493e-01  -1.8861225356072059e-01  -2.2749123346873951e-01  -1.6180425213722147e-01  -1.7312586427092247e-01  -1.9512095002706759e-01  -1.3723863537374256e-01  -1.3925607025912384e-01  -1.8861852312977051e-01  -1.2760270766296888e-01  -2.1600940771466526e-01  -1.7346508479244452e-01  -2.3625095903941454e-01  -1.4876463012028324e-01  -2.2790581705263072e-01  -2.2008886607984848e-01  -2.0143586067976077e-01  -1.8943902752181346e-01  -1.8949828872310126e-01  -1.6024139165575801e-01  -1.5459608986788170e-01  -1.7140462905676382e-01  -2.4979517730048223e-01  -1.1274434149377872e-01  -1.2556281008537623e-01  -1.2364828519008533e-01  -1.2697920952903119e-01  -2.0035862113526490e-01  -1.1208490821363497e-01  -2.2915704815933388e-01  -2.0667759265210456e-01  -1.9930168115476374e-01  -1.3611680949349467e-01  -1.7936911236133637e-01  -1.8085245475387049e-01  -1.3791334041983661e-01  -1.7731208963013409e-01  -1.1047159947999192e-01  -1.2233430361104172e-01  -1.5058971223696874e-01  -1.3354945268818624e-01  -1.5191785019643567e-01  -1.3296569177055306e-01  -1.4550129280584292e-01  -1.7102462199779264e-01  -1.9628790211627276e-01  -2.5451612855789413e-01  -1.1078967003030389e-01  -1.1654879001221319e-01  -1.1780772746460079e-01  -2.1646820013364662e-01  -1.5671175822507319e-01  -1.5975422837497974e-01  -1.5777365395619630e-01  -1.1824040421818856e-01  -2.1307117173767964e-01  -1.3862071471888801e-01  -2.1360299495228141e-01  -2.1031541577319571e-01  -1.4609480608658792e-01  -1.5928081073427316e-01  -1.4665338602540709e-01  -1.1684331001214499e-01  -1.1720757850345769e-01  -2.0459165307045521e-01  -2.2487913126646822e-01  -1.8929102015419733e-01  -1.2408004985387668e-01  -1.3153582327306285e-01  -1.5342979212357466e-01  -1.6093902291931922e-01  -1.5666303137498436e-01  -1.5061334469791460e-01  -1.4325591093473811e-01  -1.3512891567437621e-01  -1.3735698018286802e-01  -1.9762901597362459e-01  -1.1070324207390843e-01  -1.3873630712925752e-01  -1.4016050998302509e-01  -1.4705665812258012e-01  -1.1607997613217727e-01  -1.2409928551324936e-01  -1.1687425884692089e-01  -1.1071017918154930e-01  -1.3566550140820971e-01  -1.3695304372423894e-01  -2.0693480589670801e-01  -2.0586929750401087e-01  -1.6881420233903785e-01  -1.2864630167001170e-01  -1.1755695095392932e-01  -1.6581103624037472e-01  -1.1550952867689834e-01  -1.2416216508258907e-01  -1.8873925170715627e-01  -1.8415121606805496e-01  -1.2363839568496153e-01  -1.3249983627769357e-01  -1.6350378019728731e-01  -2.1812212312620571e-01  -1.4713306406305870e-01  -1.2585358133959595e-01  -1.2753104743582203e-01  -2.5823617063929127e-01  -2.5271231909189074e-01  -2.5000892751358844e-01  -1.5557539417610081e-01  -1.1594693711201397e-01  -1.6013864488546523e-01  -2.2334528203841203e-01  -1.1611823162391277e-01  -1.2524050997397079e-01  -1.7734949455874865e-01  -1.6482615637860581e-01  -1.3698092372031176e-01  -1.1376655637797661e-01  -1.7222841368736444e-01  -1.2524470336624216e-01  -1.1629995309715017e-01  -2.2551723409424329e-01  -1.7915566249504439e-01  -1.6614260285311197e-01  -1.2712024295329530e-01  -1.1586664663974126e-01  -1.6146299623181798e-01  -1.5083565208079508e-01  -2.4173015774989673e-01  -1.7343230268140955e-01  -1.1098258966911434e-01  -1.8764819725701429e-01  -2.1417234163607407e-01  -1.8929170431543316e-01  -1.5971246264965303e-01  -1.9510218028214607e-01  -1.9400771098332664e-01  -2.0672910867470015e-01  -1.2738451218018065e-01  -1.5302834333863263e-01  -2.5967393234169694e-01  -1.8959350568078684e-01  -2.3479143564981983e-01  -2.3828285024771192e-01  -2.3409215229605834e-01  -2.4416289222480181e-01  -2.4447716990475507e-01  -1.1601616153380767e-01  -1.1054212004898382e-01  -1.8222335258403544e-01  -1.8205897544805394e-01  -1.8861343375615572e-01  -1.8425055746743663e-01  -2.6017123930927777e-01  -1.5497173684263993e-01  -1.2330101552445427e-01  -2.1165956457485874e-01  -1.3114267101668131e-01  -1.2764963594007042e-01  -1.2473410500230313e-01  -1.4795140878636770e-01  -1.2758602333340704e-01  -2.0690486576486197e-01  -1.3999696797784644e-01  -1.8125455513691627e-01  -1.2727423711003386e-01  -1.2303846547457926e-01  -2.7565593545540928e-01  -2.7475133859805045e-01  -1.3674246711640556e-01  -1.9026902813590593e-01  -1.1992362248156499e-01  -2.6620845410052552e-01  -1.3937787549930719e-01  -1.1543203326720977e-01  -2.3036429320197954e-01  -2.2748173698066237e-01  -1.6566330934386508e-01  -1.4126361765357093e-01  -1.7185073277727084e-01  -2.0776366728179449e-01  -1.1176543941826916e-01  -2.5891949717313145e-01  -1.3007893394126754e-01  -1.4247306215557848e-01  -2.1368960105592000e-01  -1.3497170392257604e-01  -2.4282301399362036e-01  -1.6703899929761240e-01  -1.3577861607882669e-01  -1.4267972585211966e-01  -1.5591301421318335e-01  -1.3710155418656852e-01  -1.6349942818189092e-01  -1.6981877990220545e-01  -1.9671548840202877e-01  -1.5861926455498337e-01  -1.4763866935896433e-01  -1.2139083935635035e-01  -1.1567807692916972e-01  -1.3795128824630995e-01  -1.9680195300705777e-01  -1.1731051386640359e-01  -1.1584748183578468e-01  -2.0104807673656230e-01  -1.1056143301942264e-01  -1.1236110827060207e-01  -1.1176153170265482e-01  -1.1954999430767015e-01  -1.1456418682262492e-01  -1.1267481967896362e-01  -1.6999838563630473e-01  -1.1292925320811859e-01  -1.1080617423234686e-01  -1.5843240066179978e-01  -1.6889113162674413e-01  -1.1065372602580759e-01  -1.1076242152881721e-01  -1.1077393907705740e-01  -2.1273466838285654e-01  -2.0212928045899881e-01  -1.9148496682271973e-01  -1.1212624137881311e-01  -2.3403306020616479e-01  -2.2245503014044368e-01  -1.4782181257100072e-01  -1.4847545412334121e-01  -1.1474615884696335e-01  -2.6516927150230307e-01  -1.3038315421834379e-01  -1.1088874806789967e-01  -2.4384048885368192e-01  -1.7954191894107074e-01  -2.6573504337334114e-01  -2.5522060753917158e-01  -1.1179497622640142e-01  -1.1012286484733784e-01  -1.0776499782516490e-01  -1.0787109939650995e-01  -1.8074531578080921e-01  -1.1213056440397345e-01  -2.4463592799254641e-01  -1.1094468404743012e-01  -1.1111036994597950e-01  -1.1082398757863998e-01  -1.5149750458620040e-01  -1.3232834317762363e-01  -1.7104308466342624e-01  -1.1735613704441000e-01  -1.8050305174336365e-01  -1.1844433240337089e-01  -2.3743243682918086e-01  -2.3409607335900592e-01  -2.4185196824673616e-01  -1.2773024723193879e-01  -2.5184716105677063e-01  -2.1756057323602032e-01  -2.4182242056779193e-01  -1.4460858788853043e-01  -1.9582164320396589e-01  -2.0775333649533392e-01  -1.3954207260110743e-01  -1.8088100265881191e-01  -1.7591902429702566e-01  -1.7113805621576045e-01  -1.9145675435199339e-01  -2.3499300585041361e-01  -2.4482192600631378e-01  -1.2680283554386582e-01  -1.5379113230541364e-01  -1.4968065514922138e-01  -1.3268883957571945e-01  -2.2766919887879736e-01  -1.1639800456319693e-01  -1.7743984489672554e-01  -1.4260432314199831e-01  -2.0014658679759187e-01  -2.1708799126926029e-01  -1.7811221890761206e-01  -1.4624707234203349e-01  -1.8211991040739686e-01  -2.0967250394741846e-01  -2.0339716981508449e-01  -1.5003999724106185e-01  -1.2421382928909357e-01  -2.1988054481835442e-01  -1.3379718362233486e-01  -1.2979886483491238e-01  -1.8179499723369141e-01  -1.6596161112214539e-01  -2.2203817437878773e-01  -1.6246046469325715e-01  -2.3588993411480788e-01  -1.2759708838057179e-01  -1.6723175920548117e-01  -1.6432411339345437e-01  -1.3679453291440016e-01  -1.4944722892693221e-01  -1.4731164257406226e-01  -1.4029237310390477e-01  -1.4116378659806625e-01  -1.3531834968801107e-01  -1.8632971012601843e-01  -1.4231271720995037e-01  -1.6015696329288534e-01  -1.9211370568079517e-01  -1.5436564351961635e-01  -1.5147237928604876e-01  -1.2162269389777765e-01  -1.7950750560876266e-01  -1.5657438884926675e-01  -1.5369886510060835e-01  -1.4056395955592682e-01  -1.4630034997813218e-01  -1.7362145176090391e-01  -1.7142593332473510e-01  -1.6414981862182593e-01  -2.0276245374038152e-01  -1.3306195762518350e-01  -1.2813798296387727e-01  -1.2728598329776172e-01  -1.3125287533525018e-01  -1.3457702758131457e-01  -1.2818116877558247e-01  -1.2506130289532727e-01  -1.7223285436181190e-01  -1.8157496418255817e-01  -1.2810324089714140e-01  -1.1713107078097545e-01  -1.3199872967494816e-01  -1.6465734292177503e-01  -1.8416668514770629e-01  -1.9970735620328151e-01  -1.7077884629402529e-01  -1.4420289298730207e-01  -2.2243066656048358e-01  -1.9011840264520136e-01  -1.2299854570075776e-01  -2.2692422882084279e-01  -1.5166544476378033e-01  -1.342077