<?xml version="1.0"?>
<VTKFile type="UnstructuredGrid"  version="0.1"  >
<UnstructuredGrid>
<Piece  NumberOfPoints="6486" NumberOfCells="12696">
<Points>
<DataArray  type="Float64"  NumberOfComponents="3"  format="ascii">0 5 0  0 0 0  5 0 0  5 5 0  2.5 0 0  5 2.5 0  2.5 5 0  0 2.5 0  2.5 2.5 0  0 1.25 0  1.25 0 0  1.25 5 0  0 3.75 0  5 1.25 0  3.75 0 0  5 3.75 0  3.75 5 0  3.541666666666667 1.458333333333333 0  1.458333333333333 3.541666666666667 0  1.875 1.25 0  3.75 3.125 0  1.284722222222222 2.326388888888889 0  2.683189655172414 3.767959770114943 0  0.9375 0.9375 0  4.0625 4.0625 0  0.7252209595959597 3.026357323232324 0  2.763480392156863 0.9129901960784315 0  1.875 4.345238095238095 0  4.345238095238095 1.875 0  4.192708333333333 0.8072916666666664 0  0.8072916666666665 4.192708333333334 0  3.368055555555555 2.326388888888889 0  0.6837606837606839 1.738782051282051 0  3.285485245626782 4.324328415208927 0  2.551239698778062 1.693130150610969 0  1.827256944444444 2.868923611111111 0  3.464875022477093 0.6813924607921316 0  1.942880513719175 2.059558626187995 0  3.04563492063492 2.971230158730159 0  4.375 3.4375 0  2.13639445139758 0.5994472256987903 0  4.272228422619047 2.606956845238095 0  0.625 0 0  0 0.625 0  5 4.375 0  4.375 5 0  0.6400043240752655 2.384646170113389 0  1.347691225855598 1.660875475110776 0  3.515783617857982 3.723905460714006 0  3.125 0 0  1.875 0 0  0.625 5 0  4.375 0 0  5 1.875 0  0 1.875 0  0 3.125 0  1.875 5 0  5 0.625 0  0 4.375 0  3.125 5 0  5 3.125 0  1.489644181965304 0.6007147273217681 0  2.054597701149425 3.742302955665024 0  2.662520990197781 4.39452575763237 0  2.415835363784578 3.165530021913244 0  0.8679986894865213 3.602373689486522 0  1.267459753787878 2.886186079545454 0  4.099702380952381 1.365327380952381 0  1.316964285714286 4.438244047619047 0  3.7915135293491 1.959691594758709 0  2.875141124191255 2.118761176511833 0  3.00418010501169 1.397414179299248 0  0.4081721322167092 3.410647930198662 0  0.4166666666666666 0.9375 0  1.014190407998288 0.4422301359994293 0  1.383260571305984 1.162718286082048 0  4.53125 3.90625 0  4.453125 4.453125 0  3.772848162504192 4.48678272083473 0  2.8125 0.404329517041716 0  0.4538690476190476 0.4538690476190476 0  2.305461739347387 1.04517007574828 0  3.771263799175824 2.624190260297553 0  3.229617768018734 1.809956994202883 0  3.780190884441317 1.025307111692601 0  4.646337365591398 0.9375 0  4.537623451379149 0.4609485750426037 0  1.200477888421151 3.934852888421152 0  0.3536626344086022 4.0625 0  0.4623765486208503 4.539051424957397 0  4.0625 0.353662634408602 0  4.560525106689535 1.390989100915847 0  3.958439078571988 3.619844539285994 0  4.672619047619047 2.1875 0  2.1875 4.672619047619047 0  1.862808494877602 3.325947624431087 0  0.3268135998175443 2.8125 0  4.674181280189791 2.8125 0  2.283233994935276 4.138623547175983 0  0.9375 4.677879119362977 0  3.08488061581743 3.469889594488945 0  3.113427375573758 3.913955730709506 0  1.652847799068813 3.950848935641292 0  2.932652662909449 2.550542739521724 0  3.311350648514189 1.088831994878698 0  0.6770833333333333 1.295851139601139 0  0 1.5625 0  1.047214787840024 1.96818092308125 0  4.183331482095785 3.03958703580843 0  3.4375 5 0  1.071307777252521 3.246275861010018 0  0 2.1875 0  0.386576856303419 2.03125 0  1.713862716483534 2.439783116849799 0  1.775396256975935 1.665976816304977 0  2.231236976948428 1.443917394671254 0  2.373900732409897 2.086930260150635 0  4.114918237574474 2.221646174618671 0  3.661302567757379 4.099620139144836 0  3.378215938602977 2.734494874063393 0  0.9842097536079312 2.597286741306247 0  1.642795138888889 4.672619047619047 0  4.0625 5 0  2.099458800960004 2.567446522665629 0  2.616202751603346 1.297895893940078 0  5 4.6875 0  0.9937554350075428 1.512592975947215 0  2.8125 5 0  3.002695327068194 4.614055254615477 0  3.205627424097207 0.3852436382721472 0  1.678616581261621 0.927556612265266 0  3.365326698305438 3.196943731162083 0  1.554834936170314 3.120009882655813 0  3.108408340729323 0.7797187795784133 0  3.684368918102174 0.3728877601163941 0  2.716214835303553 3.39276351922003 0  2.37718583984784 3.551973401560441 0  0.3750662445374837 1.52191994866787 0  2.679073487930202 2.844160731602957 0  1.557635869750078 1.991068682985722 0  1.812595698561088 0.3839273018252746 0  2.512014721281916 0.6320641118792227 0  2.1875 0 0  2.349973454443689 0.3189980586887866 0  4.6875 3.59375 0  4.636052949022233 3.178355898044465 0  4.6875 5 0  3.345485909784306 4.665765449101383 0  0.536727472389443 3.749603193819277 0  4.349541499640203 1.116201826262156 0  2.886559045931982 1.774013674579691 0  0.6770833333333334 0.7142857142857143 0  1.5625 0 0  4.120842096538671 4.628726497527622 0  2.176157474177018 1.793470423744689 0  2.175650736889416 2.909863021769539 0  4.036616464259081 1.709699085170981 0  3.887974623473683 0.6492597046022868 0  3.4375 0 0  3.70675699592552 2.289666624772415 0  4.697265625 4.208984375 0  2.815177577303495 4.085937578239174 0  4.672619047619047 1.730733296184288 0  4.6875 0 0  5 0.3125 0  0.3125 5 0  0 4.6875 0  0.3276089296588581 2.484526834811734 0  0.712433309515852 2.065138854645612 0  0.6376435912223634 2.711473454001295 0  1.184991292170422 0.7222504400947201 0  1.31884329779317 0.3206944232264773 0  3.683609198994263 3.44428698533042 0  0.3125 0 0  0 0.3125 0  4.231797269642997 3.789141808928991 0  1.564375596050781 1.425998687184973 0  2.007640894175573 0.9032106925568466 0  0.955125897558294 2.276666098587227 0  1.43898735721003 2.611310720271951 0  1.954491523717513 4.040700257877075 0  1.752947649777421 3.652439445419346 0  2.509575750247638 4.678021307664052 0  4.687194709705067 2.499965519538002 0  1.5625 5 0  0.9375 5 0  5 2.8125 0  2.1875 5 0  5 1.5625 0  5 2.1875 0  4.0625 0 0  5 0.9375 0  2.8125 0 0  0.9375 0 0  0 0.9375 0  0 2.8125 0  0 3.4375 0  0 4.0625 0  5 3.4375 0  5 4.0625 0  4.010848109290813 3.306446973933037 0  0.3077461147713075 3.119700563473354 0  4.6796875 4.6796875 0  2.333079012424948 3.845757959077508 0  0.7829771267899832 3.317744656243421 0  1.159100632608513 3.532487125138763 0  0.799066251840424 3.893573750162776 0  1.57326499580282 4.255438189102632 0  0.7309366047093668 0.2991402264438908 0  0.3054777494262156 1.223275888123843 0  4.027475154280377 2.78211326942427 0  2.35270874745988 4.426658168476266 0  3.474236283732569 2.021154281686229 0  4.401414236174444 2.329446628171927 0  3.39403781747337 3.987097102903034 0  1.077524329801934 1.214100792470484 0  4.065611571711903 1.066085524514197 0  2.165399002716117 3.335637450367864 0  3.007639563081306 1.093684039371638 0  4.030818285732145 4.351883315180857 0  3.504115222530889 1.739284194222036 0  1.224503368215566 4.712091441401919 0  3.805634204685714 1.321528442399996 0  4.319233123479386 1.573547993867769 0  1.024007670021325 4.394604704797005 0  3.776400432023095 3.839003324979723 0  2.991819819453308 4.320567175146181 0  0.9782797534072181 2.886406017887129 0  1.763835134082104 0.6602345487826022 0  3.765182288741625 1.631193038541544 0  2.267959593989681 2.345053543725764 0  4.412434895833333 4.168294270833333 0  4.4072265625 4.7255859375 0  2.791493971314009 3.11210833271929 0  3.408766223032414 3.469500900677365 0  1.915147569444444 4.725484476461039 0  2.070301968506271 0.2605666686358055 0  2.767932250651506 1.530295992695836 0  3.280065043173439 1.364863281105779 0  4.45101570110842 2.974157152713635 0  3.521928862999512 2.96990445010402 0  2.552921961347576 4.008414007169315 0  0.2682955376854191 3.657555015841003 0  3.084522868361304 2.310593316718068 0  2.669255823227708 1.939379494498064 0  2.615884629473921 2.238841231570381 0  1.405652091971449 0.8877813821442277 0  3.25151486618811 3.68536115104276 0  1.963741569810629 2.331207252264507 0  4.017297980292599 2.486269171379106 0  3.869168920841219 4.748188103831625 0  3.596868753579134 4.77342723825056 0  2.41262958240343 2.764128584995838 0  1.266750578673391 1.404747710001619 0  1.559243962241121 2.85146506328516 0  3.128799423834764 2.052081657715259 0  0.6770833333333333 0.9778025793650794 0  0.2083333333333333 0.78125 0  1.978224492765132 3.087074731032578 0  4.051448850909273 1.969392119104174 0  1.320577095006813 4.172234780971559 0  3.214261103850064 2.534397293281829 0  0.2635729089754111 1.779234736680035 0  3.510775680035133 4.460728640112889 0  2.603081405968802 0.2432579385496493 0  2.866341315154884 0.6662105505481998 0  3.000919221100777 0.2270278495648781 0  1.298858304121393 2.05917319923859 0  2.020292299736597 1.589794568392338 0  0.7401688396476035 4.470780315741533 0  0.6721783535561408 4.733125588707921 0  3.753712482075402 2.874301339727514 0  3.557348205914658 2.491958694539413 0  1.094565978195436 0.2011034254079851 0  0.9338148378011396 0.6833568465908735 0  2.945530578578538 3.701798332963805 0  3.111707186654356 3.216904195825605 0  1.341791111822685 3.293123262233967 0  1.632939924064587 1.184895891095613 0  0.6335477978936732 3.517393619499591 0  0.5576014611130192 3.210998966942492 0  1.564344196470102 0.3630498725895039 0  2.75362450242839 4.626680495816594 0  3.571304405229554 1.192452351107437 0  3.522934592621944 0.9359134489437148 0  4.453125 3.671875 0  4.765625 3.828125 0  1.055906321410838 4.14310472322957 0  4.795146539102229 0.46875 0  4.767156345199235 0.7178596932040019 0  0.2048534608977711 4.53125 0  0.232843654800765 4.282140306795998 0  0.5393715189906129 4.270810883024032 0  4.329922600274667 0.2750645887059072 0  4.275515096738972 0.5448389557295173 0  4.477747423652795 0.7252838358993123 0  0.2002829820452772 0.46875 0  0.4352678571428572 0.6956845238095237 0  0.5007241582667088 0.2123388122114133 0  4.672890923830735 0.2500902110494848 0  0.4308009280819452 4.783624996516437 0  2.104871305393774 4.438653689007242 0  0.2274454167838428 0.2274454167838428 0  3.446466574593436 0.4359605369011901 0  2.12354112127588 1.217588426759619 0  2.309175236825235 0.7888355970690434 0  2.556178570281936 1.054299163237582 0  0.578683248637
[...]
<PointData  Scalars="f_16-0"> 
<DataArray  type="Float64"  Name="f_16-0"  format="ascii">8.9634290848355024e-38  -1.0608913134856468e+04  5.9293373552290426e-34  5.6843933429831486e-58  1.3679824839394214e-13  -3.8158935741676939e-41  5.9845934744082872e-43  -4.4383568441430215e-14  -1.4382996728690521e-21  1.9284676543057167e-03  8.4305287500225263e-06  1.1750574216209990e-41  1.8848760625008650e-27  -7.0594104905258041e-39  -8.6870875699805864e-23  1.5425253432063628e-49  2.8769553782125743e-49  -1.0800095714123916e-27  4.0255980128581738e-26  -1.5317436108606861e-11  4.6202263465391349e-34  2.5433941043080753e-15  -6.2583061025915431e-33  -5.0208529793619868e-05  6.4827525090847362e-45  -3.3830985071543037e-20  1.2499868989900110e-19  1.0273059031283529e-34  5.7009105291621755e-37  -4.1312888230450075e-31  1.1997757573113566e-33  2.8075501022388260e-25  -3.2511415328753600e-08  6.6282434932106054e-41  -8.4369319121822444e-18  1.9623722695740213e-21  1.3056362275418297e-24  1.1885224543130341e-14  1.5698740478815836e-28  -6.7942362711689694e-41  -7.5092584853009774e-14  -1.7005282841310081e-35  1.0426686729611709e+00  2.4043046238473066e+03  2.5129131490394829e-53  1.3986872314469884e-52  5.1762660129961489e-13  2.9298306210730536e-10  8.2720949455805758e-37  -5.5341910381287895e-19  -8.1329230807983650e-11  -1.8210410304391444e-41  -4.5201167042173687e-29  -1.0432291040745916e-42  2.3732080686555720e-09  1.6180832115559071e-20  6.7194147897473699e-42  -2.0696106627590834e-36  -4.4011298399622424e-32  1.9831184860155318e-45  -3.5243880590779024e-44  1.0104757200327013e-08  -1.5886363937503406e-29  -1.4259785991168603e-37  1.2186696051591622e-26  5.9564137515821199e-27  4.2989180684223725e-21  1.9434000630968837e-32  -2.5690945683654526e-35  5.8235464105117755e-32  1.5332659827959578e-21  2.9108468731192752e-23  9.2274743952960401e-25  -1.9211843525849650e+00  -1.4448362686968937e-04  -1.1803835324857132e-06  -6.3708626875280020e-48  3.5314933783429265e-50  7.6204243488730560e-45  1.9437721587849781e-18  1.9982130523233039e+01  6.0668151370752630e-16  -4.0707823028898098e-31  -8.6423363325945211e-24  6.0124196080427611e-29  -6.0388926301927446e-33  4.0324660929412635e-32  -7.3211093251831209e-31  2.0876011778017990e-31  4.9924455833856876e-35  -3.5912821345331039e-29  1.9549223326380726e-37  -1.6974511696874974e-39  9.9691951768266843e-39  -2.1835430022204514e-39  1.7942983514076336e-25  1.5745284361645233e-18  2.3543226065009744e-40  4.8128562829840149e-34  1.9311024376851997e-39  1.6741437578504956e-32  6.8747311577580073e-36  -1.0494324020628979e-29  -9.9036705528270035e-26  2.7078798527380781e-24  7.0714833683045640e-05  6.0816911587829592e-07  -2.0827853255152733e-12  -1.3459021442899066e-38  -2.5837213501589702e-48  2.7121305260866979e-23  1.2499832315951612e-11  -1.6641276973264875e-09  3.5699730232804457e-17  7.4548075445282104e-12  -1.5367495620898508e-15  1.0768496108940669e-18  -1.6134118477622646e-34  3.3463410646828130e-40  5.1936735760713639e-28  -1.0922168040893248e-17  7.4230094899836200e-38  -2.7984701282282385e-49  3.2376500339783626e-19  4.1402412303779289e-19  1.1827783625444181e-56  6.5863272146342853e-09  1.8870254663614369e-44  -3.0105169467502797e-42  8.8769895775104721e-21  3.5833819368785503e-10  -4.1069169453494662e-32  7.8378419007144799e-23  -3.7347552835523778e-23  -1.7011231344035203e-23  -4.8017166876239558e-29  -1.6001790659770944e-29  -1.2620386307707823e-04  -1.3341288531971240e-25  -6.5599760075513326e-13  4.5653265967209910e-12  6.1089033586031081e-17  1.1217819860074500e-12  -7.8282939136618115e-14  1.5317142761224763e-45  -1.1597350263717445e-41  -1.4368392789000925e-56  -2.1239470277378067e-45  -5.3265084071062151e-29  3.5561794030964656e-34  2.1901562628416537e-20  7.5805073814500315e-02  1.7918143514668748e-08  -5.4703382379021478e-49  2.9935724438478978e-14  -6.4629240136482095e-22  -8.8158682268239454e-33  -3.5071222131439141e-26  -5.8935856142316154e-22  -9.5357787425159574e-28  9.3620760248860106e-50  2.5320631794258763e-36  1.4174926709892967e-39  -1.8941492542538703e-30  -7.1274810374968567e-35  2.0198771098327473e-39  5.1831023419952617e-35  4.2380601576387650e-15  -8.1230266349901446e-12  -2.8181502807984888e-16  3.7728308545271302e-06  4.3769428689024558e-07  -1.6839482226445576e-35  -6.5220977084757385e+02  -1.8269021695659595e+05  6.6569686218756463e-43  1.8250694214864608e-09  -3.3411800264425838e-14  3.0230944859392962e-15  -4.5708875451011509e-18  1.7737598657419847e-32  -2.3273302197676715e-27  -1.4796663115475301e-40  1.2405117901120638e-38  2.5973297343474629e-40  -1.3759492904896274e-41  -2.1483399789395736e-44  -2.4022997828845743e-42  2.9990647438973374e-42  -6.6761921840694036e-42  -1.0898162447942805e-25  -4.6814153015452064e-36  -1.3000951574552533e-15  1.6447498045876689e-02  -9.4508241854956925e+00  4.9382160536448368e-18  4.9979638478074472e-23  4.9482889367006944e-29  -1.1798794402144927e-46  3.5943882527008234e-51  -4.1825035116219122e-37  -1.6764801037302580e-21  1.2243721559163215e-53  -5.7303337480406707e-31  9.6350981278507951e-24  1.0593444772058489e-26  3.0079619305951427e-30  1.1866634359295600e-33  3.8322939414138019e-01  -2.3359681267878785e-02  -7.7170913048992233e-35  2.9409103462179341e-37  3.5406451463056618e-26  8.8908592426774968e-35  -3.0010250591565118e-37  -7.2605215779267176e-07  -1.3552182470881754e-30  1.4693656344919139e-25  9.2379900173037755e-23  1.7571289391573694e-45  -9.3599170372305140e-27  -1.8041946098482242e-38  -3.4751250617864360e-30  -2.2386623094945165e-35  3.7774122406075505e-35  1.4252427849020911e-39  -2.6901647306008870e-39  2.6309702997925720e-19  1.9440830441675331e-11  -1.7565389006956583e-30  -3.8802434914896686e-19  -8.4579996900366502e-48  -2.3248863400812888e-51  2.4328023924076264e-29  -1.4003395931777567e-34  1.7416728975301852e-39  7.9605525407805808e-12  3.0512587142504454e-19  -1.7659743625558154e-24  3.4662952551688931e-39  -3.6409232811865719e-31  -1.7779059369228026e-33  1.1243546558167405e-26  6.9050804771230235e-24  1.0274172322462365e-18  1.4086021341554166e-20  -2.8443478671906026e-08  -8.5917728474386866e-35  1.6503344642373297e-16  -1.0631729668768463e-31  -4.4985416993496876e-47  1.1817023101261897e-46  -5.0679965359687015e-23  5.6584632302510707e-07  -3.6617112104129839e-21  4.9171042943568693e-23  8.5365167325246998e-03  -9.9816788242792516e+00  3.1297280070984198e-23  4.1814556187140057e-33  -2.4393342343807414e-33  3.8005732814999862e-27  -3.1146840268522166e-08  9.2162434180339987e-44  1.0522893503803425e-15  5.1474935309252359e-20  -3.8291745839742343e-19  1.3325264939474038e-13  7.0277319801521018e-13  3.3410311458004610e-35  -6.4990372204538436e-39  3.0940247758428142e-32  -5.5937376573316998e-28  3.9551353030466038e-04  3.1021701651207818e-05  -5.4993938857091533e-33  -1.0511007309130811e-30  -5.6805594507738334e-24  -8.3680295710666370e-09  2.4744619281165979e-26  1.5104705039715842e-24  -1.5020410178730645e-08  1.0222825088511202e-39  6.6509178170716699e-27  6.2666034078101380e-26  -1.8176605701008644e-44  4.7425010100330271e-49  -2.3996868714900106e-34  -1.4355340847226518e-33  2.7944907918630243e-35  3.1928640165431590e-34  5.0507902258476780e-32  1.5742678924767990e-33  1.3943418743419055e-29  6.6663793995353426e-30  -8.3989907025560718e-32  -2.6243835416272803e+04  7.5750672299435493e+00  2.7608922748732164e+02  -1.0481444637485536e-31  -9.1052414411833390e-38  -5.0057020185045285e-39  -5.6288637812042798e+04  2.7427053903616384e-23  -8.3943433799676488e-15  4.0310438960561729e-15  -2.5068462498128510e-19  -2.4777766565115912e-32  -1.6717369198800464e-29  3.9561142996379131e-16  -5.5256507946166341e-29  -3.4895062757911738e-25  1.4313959346430555e-37  1.2379594462875229e-40  4.8125049964929779e-52  7.5915129864659524e-08  6.8721943285955056e-29  1.7821858771223373e-29  9.4436359844305819e-23  -8.9911976083927392e-41  2.9673525325533060e-27  -4.8167571430729710e-27  8.8456248007963710e-10  -2.5240133242013032e-25  -5.0659653036696385e-28  1.8820474897489937e-34  -9.6693015211289922e-10  4.4627014136476136e-38  -2.2663497710929739e-36  -1.6194093864501094e-12  -2.1696752791092779e-40  -4.4297407928489327e-05  -1.6185550344893015e-17  -1.6280026545063088e-40  -1.5352944452346522e-41  1.5513924167757993e-29  -2.2031753154429731e-41  -8.1921540573479880e-19  -5.1262943539597941e-17  -9.2199314719836606e-43  -2.9964213387127671e-38  4.9781189985009007e-15  -4.2707004476599302e-21  -2.7007115256999300e-25  -4.4040679251366215e-43  -3.6412469072909972e-22  2.1402267998659931e-43  2.1144233045405882e-38  1.4146448230093495e-22  2.5100190470890657e-40  1.3009922266149923e-18  2.1373894183044376e-06  -3.5146487573523493e-04  -1.2279058707560575e-02  3.8060506498244052e-25  6.8717993344125980e-23  1.7861555899132912e-13  1.3018850470726929e-40  5.4630990785330203e-41  -4.3890384424145611e-42  -6.5966157040605820e-37  -1.1800824206437378e-55  -4.3183763083082207e-35  -3.9005654955744246e-36  4.0851642228566144e-21  -1.3509976193829840e-51  -9.0097808184994197e-22  2.0684011445819001e-40  -2.9126747933685065e-32  1.4561447280291577e-29  -9.4509978382456151e-25  3.0585146580573180e-19  -4.2586509066452633e-03  -7.5115101412830112e-47  8.1227647419856339e-31  -5.6095180642750154e-17  2.6987915322861024e-16  -9.5591407921017811e-44  -3.2378639301225667e-12  2.0887973695746051e-11  -9.7336465911630859e-10  -2.7370774409556733e-13  -7.1313914982990107e-31  1.9848084372122134e-19  4.0388950150124655e-28  1.2890014529736092e-24  1.0635171995867897e-31  7.5464208537464378e-35  -3.6351779881156665e-39  2.2752721786184957e-23  -1.3946808752143683e-16  -2.1731127532592704e-06  -2.5518772835488063e-35  3.1757083566773589e-08  -7.1028419084485175e-14  -3.0728226187474144e-45  2.2126499337366346e-26  2.9984624885218439e-22  -6.4814439359244765e-43  7.3397028126768892e-20  6.6243809864618808e-01  -1.2024074069346317e-10  -3.7360401239908779e-32  -2.3550423979822751e-36  -4.6080165839841910e-26  -5.6836679682389488e-34  8.5748331966242572e-44  -4.2575296268707668e-22  -4.4965400334831584e-10  -4.6169904495390161e-32  -6.3468233096033785e-18  -1.4440197310023425e-17  8.1919612081147063e-16  2.7933097748309240e-32  -5.9142990846606564e-26  -2.1516158379491617e-21  1.4521585757733686e-29  -2.0115546732737299e-06  -1.5265410633433209e-13  1.2060495082062466e-41  2.2508162973061997e-20  2.8938544154791290e-34  1.6587170064787059e-39  -2.9800152996798612e-42  5.6918188143129413e-20  2.9888978963859534e-15  1.3071774042253111e-28  9.3660542586407468e-34  2.0340711981880025e-39  -5.4480274220862161e-42  -3.1545598959950335e-07  -2.7071263052688627e-23  -2.1474119275331320e-39  -3.8914960595528316e-37  -1.4955793903634991e-27  -4.0489302896940658e-16  -4.2072062647281837e-31  8.6218016591145855e-17  -8.1351978139894152e-38  -1.4700460731449649e-07  -1.3458505275319524e-35  9.9714412726764045e-25  -5.7082231743920974e-16  5.8954498296430522e-26  -2.1749038159442143e-54  -5.3229568610655679e-15  -1.1057276815308783e-32  3.3361417625037944e-21  2.0516048261251488e-12  9.5348153944959463e-30  -7.2428312986440672e-27  -2.9510537997750021e-11  5.1560906587252856e-40  3.8670111316796752e-49  -3.5793065744547537e-38  -1.0678902764783186e-41  -1.9359179814291817e-13  9.2097810656058299e-08  -8.0372563877535753e-22  -3.5942918482527134e-07  7.0605140064699968e-32  4.1568969140997638e-22  7.6316833591560809e-15  1.7997458709647630e-27  -3.7909907863771961e-27  -7.0510925742265642e-18  -8.7770549933720701e-37  5.3027261997154680e-10  -2.2390555467100659e-22  -5.2977721152082694e-04  -1.5744349868875412e-25  4.9192513091202444e-09  -1.0037467308554706e-10  3.5167831577530975e-15  9.4785422599056224e-20  -5.3649929271878371e-18  4.0860326811225468e-30  -2.9855157367890276e-32  -6.9662601773985432e-29  -4.8181668159051269e-03  -8.7912842911397885e-41  9.4086825801544827e-46  -2.2779548483771809e-49  -1.5366563334122773e-37  1.9366778110185280e-17  2.6697592480418080e-47  -6.1888018047934670e-08  8.1497395970098234e-13  1.6054547121824368e-16  8.8617866189546322e-35  1.4946382037529243e-21  -1.6886214210295066e-20  1.5320295960205138e-39  -2.6056142724251944e-23  -2.2416577280332380e-42  -2.0118336293467236e-41  -2.8473440816240986e-30  -1.1856661270946860e-42  8.7599196846162454e-29  1.5500266426143498e-46  -4.4898125471349063e-31  1.4014597851123563e-23  9.5635853190964607e-20  -3.3264519854881609e-02  -3.0575589373841888e-36  -7.0959370244864980e-35  7.1320267816213457e-40  -7.3862720142666526e-11  1.3450857348401888e-27  5.4695699255263389e-28  1.9621690896442125e-27  7.0718540465157135e-50  2.8755753308832412e-12  2.3510746953602852e-35  -4.1036641361550211e-15  -7.5599132656571785e-13  2.6259616624740971e-32  1.2199069849026793e-24  4.5760210929127320e-32  -1.0710051181593379e-40  8.7085619673061631e-40  1.2591840308828417e-12  -2.8896968901928701e-10  2.7073204332629797e-22  -3.0980215645182495e-39  -4.2274350890391151e-35  1.2219172521456162e-27  -4.3484317483361533e-26  2.5310792921229116e-28  -8.7123373745391445e-36  -2.6086717136380273e-30  6.9471299584820643e-43  3.8610072216944910e-33  2.6805922616262956e-15  -6.5257091805315808e-40  -6.1988856789718376e-35  1.7109535450762036e-32  3.6203974334723698e-31  -1.8292883508947644e-47  -2.1892938222083660e-46  -3.4325516521738971e-45  -7.1154814525565300e-34  -1.5411059536191556e-35  -1.2382633608595731e-31  -6.2979610730622367e-12  -3.4568882278269415e-13  4.5066563910198743e-25  5.0857207339570464e-43  2.2854569490887743e-46  6.3700533677304649e-27  -3.3719087425289388e-51  -5.0706305338330900e-50  6.8185542343568656e-20  3.4026180634400768e-21  -1.2509269305901337e-32  -5.3712999151962716e-33  -2.6446537971695199e-27  -2.3421404823670809e-11  1.3887807876539058e-37  9.0384067255663908e-38  -5.4734606362583280e-31  -1.7286375741535942e-01  -6.3596768378530344e-02  -2.4153881688709893e-03  -1.7146081864446053e-29  1.1887191358313299e-32  1.8800002066314621e-32  7.5086533716091344e-08  -7.7943400130663205e-39  -1.6093508044956779e-35  -7.8420158911756203e-19  -1.7248937414424702e-24  1.1964014022198329e-37  -5.5667236021244774e-55  -1.2081743504523774e-28  -7.3523942169296954e-46  4.0687386002851878e-51  -1.3254371503357648e-06  3.6868050070420885e-20  2.2595888298812101e-29  -5.1881970794718413e-37  -2.7880028251057215e-41  -4.3998995853891053e-26  6.5951479383362867e-36  -3.8850479637410419e-05  -6.3205254374025725e-24  7.2806711781838785e-51  3.6550005352079362e-23  1.2091134672061091e-09  4.3740064388104821e-19  -4.9042753579855208e-34  8.5637818415941995e-16  -1.9606957947026694e-19  7.5005252387222628e-15  9.9552495408405693e-38  -3.6305080465297006e-29  1.6146310524590899e+00  3.7335802151930266e-17  7.4195406265813101e-08  -1.7384757007367285e-05  -7.8533630720707156e-08  5.7916302936424988e-05  5.7435641793294306e-05  -7.6071149306834305e-40  7.5310983336297163e-42  3.6305942896382825e-25  -5.6354720424793461e-22  7.5062775724002187e-20  6.2275642935473638e-18  -1.0249074243282598e+02  1.1652052283898078e-37  5.9592951819737007e-38  -2.6725509718960077e-12  -3.6029436266027700e-45  -4.2944641558225590e-34  -1.4754531270570204e-47  2.4783418761240696e-33  -1.0260293463340153e-46  1.2522218094784719e-14  -2.6198916237412464e-41  5.1491746522337397e-22  8.9981973409298621e-39  -2.2688454604364451e-39  -8.1287502920899860e+03  -7.5814692014377099e+06  7.0480219413009855e-44  -1.7271796007119823e-14  -7.5688083018722747e-53  5.0282005107118840e+02  3.8530207155298272e-31  1.7854163896486615e-34  -1.6933880065708842e-08  -8.7663544811841948e-09  3.6071383072729991e-26  -5.5175736060754115e-37  5.2998380216118773e-25  2.3495172102352480e-13  -1.9850202376358495e-49  7.1789385161065189e+00  4.4977929541148911e-29  -9.8497863598874881e-29  1.0283541255307007e-12  -4.2067060564819823e-35  -1.1060867890734095e-03  -2.7071600296905294e-24  -1.7730240783411056e-34  -2.7890132422064309e-31  -1.6800380641773087e-29  -1.9975663432950756e-44  -2.6460989569087622e-21  1.0897938075618647e-29  -6.5815984783162934e-18  1.2363227227856533e-31  5.2850518966349757e-35  -2.1307647726122526e-38  -3.7593603393552433e-40  6.1335236847993302e-33  -1.4584601875206544e-14  3.7188394726872172e-43  4.0962833573448543e-42  3.7852448059226050e-13  6.8829494166150008e-54  1.7858332955625702e-40  -3.1370616833066438e-51  -3.9900918024034541e-36  2.7986177636900728e-38  -1.4018797084188815e-43  -3.2056008865689078e-22  2.9860779530019597e-41  -1.8994851617916940e-45  -2.9543441957233299e-21  4.3020411445392024e-20  3.6764933334149224e-42  4.6730101240711841e-41  4.6706451248728529e-44  1.7797694193961678e-11  -9.2787991217717143e-12  2.1096346731139699e-16  3.5834596420002491e-43  1.1147891044549584e-05  1.2945037624728027e-09  8.5192972856573589e-24  -1.8263080905874564e-27  -1.9293626981007327e-39  2.5581544783827425e+01  4.9751658393265415e-34  2.6928256496035586e-35  -3.7941082899044232e-05  -3.4272025084000780e-18  -6.1092868404011351e+04  -1.4993700379542378e+02  -1.0417696546924027e-49  -4.3372902387538773e-55  -2.4811354563367980e-58  4.9237776842555200e-57  3.0388176007572474e-19  4.2275701772947032e-44  -2.4593926419669485e-01  2.3190508120409085e-48  7.8408660311900147e-53  -2.6292204550666599e-37  -1.8798743573566504e-29  -1.8368564497152975e-37  -1.9847161799986758e-24  2.6320290132848406e-39  1.6968583434201188e-21  -2.3058724709933151e-41  3.3694984076962411e-06  1.4942490639902220e-06  -1.6859771470652469e-05  7.3190318359921468e-44  2.8690202146998477e-02  2.0943617116065284e-12  1.5672358934471953e-03  1.0716342900303216e-33  -1.7130430196798289e-17  -1.0758529444109925e-15  7.4872086190343116e-34  -3.6963903182594897e-20  4.0987313345047248e-21  -4.2180958491434031e-24  -1.8805255143668622e-17  -7.0007717425447219e-04  2.5662821521917952e-02  -6.7291008350302148e-37  3.0965691070250773e-34  -4.5873151190840476e-31  -6.2250320834539972e-35  -9.3733664620941093e-09  3.8474485632063368e-42  3.6794084700581144e-21  5.1787720116820076e-33  -5.1901253939173363e-18  2.9674613592998886e-10  -1.7526544071853508e-27  -1.5911026033494734e-30  -3.4795143635858497e-21  -4.2940836402025680e-14  5.6996726732959990e-15  7.3802422441088963e-28  -5.5047286337225274e-39  2.0299732547776290e-10  7.5958315308070095e-37  1.5089561582250255e-36  3.8997634599766856e-22  1.1747792463496315e-24  5.0730425205722786e-10  3.1919958158214459e-29  -2.6536392198068455e-07  -2.0943513693520612e-41  -2.7297890719458895e-24  1.2551029476137280e-26  1.2996350667075240e-39  -2.6682138644588191e-33  -2.9982308350531676e-32  1.1149458621243400e-35  1.4233511320397660e-33  1.0097665341850658e-33  4.6713115981127891e-18  7.4144059296902272e-34  -3.4365398932354603e-27  -1.2311953125574169e-18  6.4980292871564547e-29  3.7089761660673108e-29  -8.4111433336256872e-42  -9.6444821404674564e-22  1.4457427428516838e-27  -6.4485605725119845e-29  -1.6002694754013195e-33  -6.5510073388903885e-33  5.5781924627291682e-22  1.3594256058604020e-23  1.1821235213701867e-25  -9.2763362804157082e-17  -5.5449180737640118e-31  1.7070000397297055e-38  8.3735884066282099e-40  1.3396006421207965e-35  -3.2004625879222472e-34  2.8297989849834709e-36  -5.3047682733734812e-43  2.9669192988230426e-28  2.4872646605623213e-19  2.1923989551542328e-40  1.5171255559962806e-41  7.8416085246008896e-36  -1.3854756952112050e-26  8.9600611163185309e-20  6.3951680850452118e-14  2.9430216939208966e-27  4.9769098734985432e-27  3.0949060514425610e-10  3.1700377084684895e-17  -7.2679557738900767e-45  1.5983037639405310e-08  3.8319795111083598e-25  1.1146067459128097e-44  -1.0512242588779411e-44  3.8115324892973524e-50  -2.1868110760268975e-34  5.6102399040771808e-41  -4.6542187220230225e-19  7.8394638667927586e-29  1.9059462410619286e-24  -9.4170872360710572e-17  -1.2162899203588479e-36  -6.7842586673038587e-40  -2.2770061976659390e-27  5.4024043341473358e-32  -5.3005252521863873e-17  -1.7136651699525617e-26  1.8071997138627880e-19  1.0702984646412678e-17  6.