<?xml version="1.0"?>
<VTKFile type="UnstructuredGrid"  version="0.1"  >
<UnstructuredGrid>
<Piece  NumberOfPoints="6486" NumberOfCells="12696">
<Points>
<DataArray  type="Float64"  NumberOfComponents="3"  format="ascii">0 2.5 0  0 0 0  2.5 0 0  2.5 2.5 0  1.25 0 0  2.5 1.25 0  1.25 2.5 0  0 1.25 0  1.25 1.25 0  0 0.625 0  0.625 0 0  0.625 2.5 0  0 1.875 0  2.5 0.625 0  1.875 0 0  2.5 1.875 0  1.875 2.5 0  1.770833333333333 0.7291666666666666 0  0.7291666666666666 1.770833333333333 0  0.9375 0.625 0  1.875 1.5625 0  0.642361111111111 1.163194444444444 0  1.341594827586207 1.883979885057471 0  0.46875 0.46875 0  2.03125 2.03125 0  0.3626104797979798 1.513178661616162 0  1.381740196078431 0.4564950980392157 0  0.9375 2.172619047619047 0  2.172619047619047 0.9375 0  2.096354166666667 0.4036458333333332 0  0.4036458333333333 2.096354166666667 0  1.684027777777778 1.163194444444444 0  0.3418803418803419 0.8693910256410255 0  1.642742622813391 2.162164207604464 0  1.275619849389031 0.8465650753054845 0  0.9136284722222221 1.434461805555556 0  1.732437511238546 0.3406962303960658 0  0.9714402568595876 1.029779313093998 0  1.52281746031746 1.485615079365079 0  2.1875 1.71875 0  1.06819722569879 0.2997236128493951 0  2.136114211309524 1.303478422619048 0  0.3125 0 0  0 0.3125 0  2.5 2.1875 0  2.1875 2.5 0  0.3200021620376328 1.192323085056694 0  0.6738456129277992 0.8304377375553881 0  1.757891808928991 1.861952730357003 0  1.5625 0 0  0.9375 0 0  0.3125 2.5 0  2.1875 0 0  2.5 0.9375 0  0 0.9375 0  0 1.5625 0  0.9375 2.5 0  2.5 0.3125 0  0 2.1875 0  1.5625 2.5 0  2.5 1.5625 0  0.7448220909826522 0.3003573636608841 0  1.027298850574712 1.871151477832512 0  1.331260495098891 2.197262878816185 0  1.207917681892289 1.582765010956622 0  0.4339993447432606 1.801186844743261 0  0.6337298768939392 1.443093039772727 0  2.049851190476191 0.6826636904761904 0  0.6584821428571428 2.219122023809524 0  1.89575676467455 0.9798457973793544 0  1.437570562095628 1.059380588255917 0  1.502090052505845 0.6987070896496241 0  0.2040860661083546 1.705323965099331 0  0.2083333333333333 0.46875 0  0.5070952039991439 0.2211150679997147 0  0.6916302856529919 0.5813591430410241 0  2.265625 1.953125 0  2.2265625 2.2265625 0  1.886424081252096 2.243391360417365 0  1.40625 0.202164758520858 0  0.2269345238095238 0.2269345238095238 0  1.152730869673694 0.5225850378741401 0  1.885631899587912 1.312095130148776 0  1.614808884009367 0.9049784971014416 0  1.890095442220658 0.5126535558463003 0  2.323168682795699 0.46875 0  2.268811725689575 0.2304742875213018 0  0.6002389442105756 1.967426444210576 0  0.1768313172043011 2.03125 0  0.2311882743104251 2.269525712478698 0  2.03125 0.176831317204301 0  2.280262553344767 0.6954945504579233 0  1.979219539285994 1.809922269642997 0  2.336309523809524 1.09375 0  1.09375 2.336309523809524 0  0.9314042474388009 1.662973812215543 0  0.1634067999087722 1.40625 0  2.337090640094896 1.40625 0  1.141616997467638 2.069311773587991 0  0.46875 2.338939559681489 0  1.542440307908715 1.734944797244472 0  1.556713687786879 1.956977865354753 0  0.8264238995344066 1.975424467820646 0  1.466326331454725 1.275271369760862 0  1.655675324257095 0.5444159974393489 0  0.3385416666666666 0.6479255698005697 0  0 0.78125 0  0.5236073939200119 0.984090461540625 0  2.091665741047893 1.519793517904215 0  1.71875 2.5 0  0.5356538886262603 1.623137930505009 0  0 1.09375 0  0.1932884281517095 1.015625 0  0.8569313582417669 1.2198915584249 0  0.8876981284879677 0.8329884081524883 0  1.115618488474214 0.7219586973356271 0  1.186950366204949 1.043465130075318 0  2.057459118787237 1.110823087309335 0  1.830651283878689 2.049810069572418 0  1.689107969301489 1.367247437031697 0  0.4921048768039656 1.298643370653124 0  0.8213975694444444 2.336309523809524 0  2.03125 2.5 0  1.049729400480002 1.283723261332814 0  1.308101375801673 0.6489479469700392 0  2.5 2.34375 0  0.4968777175037714 0.7562964879736076 0  1.40625 2.5 0  1.501347663534097 2.307027627307738 0  1.602813712048603 0.1926218191360736 0  0.8393082906308107 0.463778306132633 0  1.682663349152719 1.598471865581041 0  0.7774174680851571 1.560004941327907 0  1.554204170364662 0.3898593897892066 0  1.842184459051087 0.186443880058197 0  1.358107417651776 1.696381759610015 0  1.18859291992392 1.77598670078022 0  0.1875331222687418 0.7609599743339348 0  1.339536743965101 1.422080365801479 0  0.7788179348750389 0.9955343414928611 0  0.9062978492805438 0.1919636509126373 0  1.256007360640958 0.3160320559396114 0  1.09375 0 0  1.174986727221844 0.1594990293443933 0  2.34375 1.796875 0  2.318026474511116 1.589177949022232 0  2.34375 2.5 0  1.672742954892153 2.332882724550692 0  0.2683637361947215 1.874801596909639 0  2.174770749820102 0.5581009131310781 0  1.443279522965991 0.8870068372898454 0  0.3385416666666667 0.3571428571428572 0  0.78125 0 0  2.060421048269335 2.314363248763811 0  1.088078737088509 0.8967352118723447 0  1.087825368444708 1.454931510884769 0  2.018308232129541 0.8548495425854904 0  1.943987311736842 0.3246298523011434 0  1.71875 0 0  1.85337849796276 1.144833312386208 0  2.3486328125 2.1044921875 0  1.407588788651747 2.042968789119587 0  2.336309523809524 0.865366648092144 0  2.34375 0 0  2.5 0.15625 0  0.15625 2.5 0  0 2.34375 0  0.1638044648294291 1.242263417405867 0  0.356216654757926 1.032569427322806 0  0.3188217956111817 1.355736727000647 0  0.5924956460852111 0.36112522004736 0  0.6594216488965849 0.1603472116132387 0  1.841804599497131 1.72214349266521 0  0.15625 0 0  0 0.15625 0  2.115898634821499 1.894570904464496 0  0.7821877980253907 0.7129993435924866 0  1.003820447087786 0.4516053462784233 0  0.477562948779147 1.138333049293613 0  0.719493678605015 1.305655360135975 0  0.9772457618587566 2.020350128938537 0  0.8764738248887107 1.826219722709673 0  1.254787875123819 2.339010653832026 0  2.343597354852534 1.249982759769001 0  0.78125 2.5 0  0.46875 2.5 0  2.5 1.40625 0  1.09375 2.5 0  2.5 0.78125 0  2.5 1.09375 0  2.03125 0 0  2.5 0.46875 0  1.40625 0 0  0.46875 0 0  0 0.46875 0  0 1.40625 0  0 1.71875 0  0 2.03125 0  2.5 1.71875 0  2.5 2.03125 0  2.005424054645407 1.653223486966518 0  0.1538730573856537 1.559850281736677 0  2.33984375 2.33984375 0  1.166539506212474 1.922878979538754 0  0.3914885633949916 1.65887232812171 0  0.5795503163042564 1.766243562569382 0  0.399533125920212 1.946786875081388 0  0.7866324979014098 2.127719094551316 0  0.3654683023546834 0.1495701132219454 0  0.1527388747131078 0.6116379440619215 0  2.013737577140188 1.391056634712135 0  1.17635437372994 2.213329084238133 0  1.737118141866284 1.010577140843115 0  2.200707118087222 1.164723314085963 0  1.697018908736685 1.993548551451517 0  0.5387621649009668 0.6070503962352419 0  2.032805785855952 0.5330427622570983 0  1.082699501358059 1.667818725183932 0  1.503819781540653 0.5468420196858188 0  2.015409142866072 2.175941657590429 0  1.752057611265444 0.869642097111018 0  0.612251684107783 2.356045720700959 0  1.902817102342857 0.6607642211999982 0  2.159616561739693 0.7867739969338844 0  0.5120038350106624 2.197302352398502 0  1.888200216011548 1.919501662489862 0  1.495909909726654 2.16028358757309 0  0.489139876703609 1.443203008943564 0  0.8819175670410521 0.3301172743913011 0  1.882591144370812 0.8155965192707721 0  1.133979796994841 1.172526771862882 0  2.206217447916667 2.084147135416667 0  2.20361328125 2.36279296875 0  1.395746985657004 1.556054166359645 0  1.704383111516207 1.734750450338683 0  0.9575737847222222 2.36274223823052 0  1.035150984253136 0.1302833343179028 0  1.383966125325753 0.7651479963479179 0  1.64003252158672 0.6824316405528895 0  2.22550785055421 1.487078576356817 0  1.760964431499756 1.48495222505201 0  1.276460980673788 2.004207003584658 0  0.1341477688427096 1.828777507920502 0  1.542261434180652 1.155296658359034 0  1.334627911613854 0.9696897472490321 0  1.30794231473696 1.119420615785191 0  0.7028260459857245 0.4438906910721139 0  1.625757433094055 1.84268057552138 0  0.9818707849053143 1.165603626132254 0  2.0086489901463 1.243134585689553 0  1.934584460420609 2.374094051915812 0  1.798434376789567 2.38671361912528 0  1.206314791201715 1.382064292497919 0  0.6333752893366955 0.7023738550008095 0  0.7796219811205605 1.42573253164258 0  1.564399711917382 1.026040828857629 0  0.3385416666666666 0.4889012896825397 0  0.1041666666666667 0.390625 0  0.989112246382566 1.543537365516289 0  2.025724425454636 0.9846960595520872 0  0.6602885475034063 2.086117390485779 0  1.607130551925032 1.267198646640915 0  0.1317864544877056 0.8896173683400176 0  1.755387840017567 2.230364320056445 0  1.301540702984401 0.1216289692748247 0  1.433170657577442 0.3331052752740999 0  1.500459610550388 0.113513924782439 0  0.6494291520606965 1.029586599619295 0  1.010146149868299 0.794897284196169 0  0.3700844198238017 2.235390157870766 0  0.3360891767780704 2.36656279435396 0  1.876856241037701 1.437150669863757 0  1.778674102957329 1.245979347269706 0  0.5472829890977179 0.1005517127039925 0  0.4669074189005698 0.3416784232954367 0  1.472765289289269 1.850899166481903 0  1.555853593327178 1.608452097912802 0  0.6708955559113426 1.646561631116984 0  0.8164699620322933 0.5924479455478063 0  0.3167738989468366 1.758696809749795 0  0.2788007305565096 1.605499483471246 0  0.7821720982350511 0.181524936294752 0  1.376812251214195 2.313340247908297 0  1.785652202614777 0.5962261755537186 0  1.761467296310972 0.4679567244718574 0  2.2265625 1.8359375 0  2.3828125 1.9140625 0  0.5279531607054191 2.071552361614785 0  2.397573269551114 0.234375 0  2.383578172599618 0.3589298466020009 0  0.1024267304488855 2.265625 0  0.1164218274003825 2.141070153397999 0  0.2696857594953064 2.135405441512016 0  2.164961300137334 0.1375322943529536 0  2.137757548369486 0.2724194778647587 0  2.238873711826398 0.3626419179496562 0  0.1001414910226386 0.234375 0  0.2176339285714286 0.3478422619047619 0  0.2503620791333544 0.1061694061057066 0  2.336445461915368 0.1250451055247424 0  0.2154004640409726 2.3918124
[...]
<PointData  Scalars="f_49-0"> 
<DataArray  type="Float64"  Name="f_49-0"  format="ascii">-3.3109144497518199e-03  -9.4920775873250079e-03  -2.1666600213634578e-03  -1.4013658754770716e-03  -5.7949660707344352e-03  -2.3740162699309605e-03  -3.5783632517808429e-03  -6.9467935127296874e-03  -4.3558997123970995e-03  -8.7431499503134447e-03  -7.6959046233434697e-03  -3.4463345075598454e-03  -5.0576853213879251e-03  -2.1061580106101455e-03  -3.8095913132594065e-03  -2.4057142070982741e-03  -3.3970163652562728e-03  -4.4393898804616534e-03  -5.5322759010575928e-03  -6.3275981037133290e-03  -3.5778275782006618e-03  -7.1657656671297648e-03  -5.0650600357958963e-03  -5.3772198949957519e-03  -2.5445727485889969e-03  -6.2435728593121121e-03  -5.5708235933354562e-03  -4.4551625027940281e-03  -3.2418229285091985e-03  -3.2351598445296854e-03  -4.5418584568282655e-03  -4.6248538429736578e-03  -8.0183588163829853e-03  -4.1973014783999018e-03  -5.6976035568958288e-03  -6.3851780950508258e-03  -4.2979000893861594e-03  -5.0277720239449031e-03  -3.7541301161243003e-03  -3.0887866643671933e-03  -6.4382200004151876e-03  -3.4832514179298879e-03  -8.4574212483772820e-03  -9.4965582731513492e-03  -1.8908841121037588e-03  -2.4790117412675059e-03  -7.0963351088203742e-03  -6.3638431631456004e-03  -3.2522616751809851e-03  -4.7198289426162087e-03  -6.7367520667270288e-03  -3.3056461878647036e-03  -2.8342549813290805e-03  -2.1615303542148814e-03  -7.7363034115888202e-03  -6.0443154020161406e-03  -3.5046252439539325e-03  -2.0675525585228676e-03  -4.2022058295856247e-03  -3.5539743717025491e-03  -2.4582244913640291e-03  -7.3396565343754935e-03  -5.2316300197724512e-03  -4.3440175526491473e-03  -5.4714446654443652e-03  -5.4483930013376897e-03  -6.4319453538263403e-03  -3.4613676377864915e-03  -4.2267671281835499e-03  -4.1078853495270023e-03  -5.1035964524764558e-03  -5.2329026679729619e-03  -5.6678392966584114e-03  -8.9018252233715057e-03  -7.8313642546169442e-03  -5.6122681009547109e-03  -2.5260209055847933e-03  -2.0522290236003700e-03  -3.3847694999485723e-03  -5.3335286949559762e-03  -4.3483416620982056e-03  -6.2461446884207669e-03  -4.1028155438707012e-03  -4.9469798560606310e-03  -3.8836119320839265e-03  -2.5664145080969833e-03  -2.7033912943908852e-03  -4.9918759308397740e-03  -4.6420560002300255e-03  -3.9760151875526386e-03  -3.4058561107762940e-03  -2.7556127692152737e-03  -2.8872359002041705e-03  -2.7627421224694321e-03  -4.0014684044803626e-03  -5.7938676712469368e-03  -6.5419241871045464e-03  -2.8893247552141724e-03  -4.7124474063396787e-03  -3.8314432389987387e-03  -4.0709378882167746e-03  -4.4245066364111156e-03  -4.9986524756881799e-03  -4.2638474868871169e-03  -4.7526353083491421e-03  -8.4128815543612259e-03  -8.2477339245232324e-03  -7.6181340850425662e-03  -3.5140684211413093e-03  -3.5414719554288576e-03  -5.9244828145974780e-03  -7.3273864745083519e-03  -7.5720848076814345e-03  -6.6004988958280253e-03  -5.0444732903057584e-03  -6.1086486258247101e-03  -4.6958045982965118e-03  -3.6302369701794938e-03  -3.2749346638640429e-03  -4.1317242135123465e-03  -6.8134508792105043e-03  -3.9419576992842532e-03  -3.0316955363242420e-03  -5.5339459115540520e-03  -5.7952392821677343e-03  -1.5663549373520647e-03  -7.7151518723619604e-03  -3.5738571640556230e-03  -4.0368737304081834e-03  -4.6576514311867040e-03  -6.9481486370063048e-03  -3.4317380735500338e-03  -6.0909460181382607e-03  -4.9853474979897981e-03  -3.8921851093518703e-03  -4.9893186941549544e-03  -5.4451541561016167e-03  -8.3015824753318434e-03  -4.2556163515502215e-03  -6.4321783928615274e-03  -6.8688358697023147e-03  -5.9041733994961293e-03  -6.2847495125413324e-03  -6.1513654406341973e-03  -2.7646514303087998e-03  -2.9733642013934107e-03  -1.8163112205310827e-03  -3.9118439891902505e-03  -5.1807599623247104e-03  -2.9999478997264650e-03  -5.3735200365742936e-03  -5.5162877639300355e-03  -7.1741036475936083e-03  -2.7406463843779368e-03  -5.1785858647090434e-03  -5.8157414047848828e-03  -3.7104913337487125e-03  -3.6545512297309138e-03  -4.2834262075609380e-03  -4.2476265723520399e-03  -2.1318425846728207e-03  -4.6869590781288134e-03  -2.6217174531718243e-03  -2.5342393955425551e-03  -2.1393059908069206e-03  -3.2957323195923417e-03  -3.6386883037589179e-03  -6.9422347363276016e-03  -7.5886261011427576e-03  -6.6623839741940189e-03  -7.1171743449740471e-03  -7.5774217632985892e-03  -3.0965031885128204e-03  -8.9590902129362028e-03  -1.0098871525513243e-02  -2.6629907927473505e-03  -5.2616985434217525e-03  -6.6260268046722344e-03  -7.3058035802218693e-03  -6.7993333746136104e-03  -4.8711511989587763e-03  -5.3735241488301749e-03  -4.0152942787898245e-03  -2.8542583933526574e-03  -3.4722462005938319e-03  -3.3419142090817121e-03  -2.4435247521726313e-03  -3.5432514761715482e-03  -2.1765422741437698e-03  -2.2695313886707692e-03  -3.3992208935238566e-03  -2.0816261565335357e-03  -5.1151601104419443e-03  -8.0940106608624763e-03  -9.1268166703088426e-03  -6.5436304053314723e-03  -5.6061850340997721e-03  -4.6728476159960137e-03  -2.4955500489880012e-03  -2.1809505418634648e-03  -3.3364114272664228e-03  -6.0791287581945189e-03  -1.7901621248520372e-03  -5.1035072599738022e-03  -5.8897559813142998e-03  -5.5345651637278342e-03  -4.9951408407039270e-03  -4.5616089049211207e-03  -7.9539427109071286e-03  -8.7194748344264737e-03  -3.7906068185963966e-03  -4.3601970596534884e-03  -4.5726737846007396e-03  -3.2243240404913258e-03  -3.8296499841613922e-03  -5.8420316976363993e-03  -3.4807733225394083e-03  -5.7628255296925954e-03  -5.2001343109521056e-03  -2.7102429135406800e-03  -4.5332901115683402e-03  -3.8169003863319732e-03  -3.9457325894494532e-03  -3.1758614365278780e-03  -4.2599863608618945e-03  -2.8695455907318617e-03  -4.3829483422486940e-03  -6.4270418681743793e-03  -6.9435135461109682e-03  -4.0590634221972953e-03  -4.6481837658711254e-03  -2.1948979992513131e-03  -2.1778817283296726e-03  -4.3207674243647323e-03  -3.3212902588387765e-03  -3.8808595376898986e-03  -6.5235606446208023e-03  -5.5968791349654684e-03  -4.8099553118677143e-03  -3.2525945275283770e-03  -3.7620050798359106e-03  -4.8719470209143368e-03  -5.3298849438529463e-03  -4.7815504661641540e-03  -5.3600562623162323e-03  -4.5938426593268092e-03  -6.8300617598363138e-03  -3.8846177988433178e-03  -5.6318765706990714e-03  -3.8486978798400722e-03  -3.3289834680232046e-03  -3.6661033357836006e-03  -4.9139949840382646e-03  -5.7578872951144586e-03  -6.4867630474058887e-03  -5.0411772317786128e-03  -7.4097508817808433e-03  -9.3122379434256095e-03  -6.0943920037580535e-03  -3.6703457895054881e-03  -4.6256904544234884e-03  -4.4392521272440697e-03  -7.9479706706124999e-03  -3.8929199787331769e-03  -5.6478648175059950e-03  -5.3615858027619987e-03  -4.9465415217867341e-03  -7.3079866633286705e-03  -5.4986923795434526e-03  -4.1083804690783638e-03  -3.7069502522709425e-03  -3.9197602201399735e-03  -4.3720627314811945e-03  -7.8567009233623652e-03  -6.1963428528834423e-03  -4.6527258514369218e-03  -3.6659330299158017e-03  -5.8241973987142601e-03  -6.1174309331139430e-03  -5.5459144201747473e-03  -6.0066594108465834e-03  -7.2460380842744422e-03  -4.0366321984432922e-03  -4.3483660711927203e-03  -4.2930667677512410e-03  -2.8316560975614542e-03  -2.5262304487241810e-03  -4.6574883575430546e-03  -2.2748588359606200e-03  -2.4092093342448547e-03  -3.9607481338049264e-03  -4.3861069214121287e-03  -4.3783829303642207e-03  -3.0115595634362491e-03  -3.1211855165461382e-03  -2.8799605542796309e-03  -9.1590978076135886e-03  -7.8725782552984194e-03  -7.6740130141137253e-03  -2.4543027527187877e-03  -3.6067441802769343e-03  -4.3412009468293397e-03  -3.2415751123225072e-03  -4.3302137854067503e-03  -6.3819048379110104e-03  -6.1708402346527958e-03  -5.8429616111626073e-03  -4.8506306781463861e-03  -3.7213331143724541e-03  -6.9186089025535091e-03  -4.9108589459864859e-03  -3.6577673754729198e-03  -2.4767596205744909e-03  -2.4511169435413611e-03  -1.8299650189972077e-03  -5.7507131041989639e-03  -5.1989580978946091e-03  -5.1844578448685076e-03  -5.1267382844659339e-03  -3.2819918908424191e-03  -4.0130464917742690e-03  -3.9888494351640073e-03  -7.8883570805831169e-03  -5.7337702551509490e-03  -5.5063601291283322e-03  -3.1012940127378426e-03  -7.0136815004706128e-03  -3.1472598950979241e-03  -4.5412584738050580e-03  -7.2033526599546609e-03  -2.5399691184614637e-03  -8.4668211214678525e-03  -6.9180947961881125e-03  -3.0977658920629120e-03  -2.6625848506162935e-03  -3.6017204550623022e-03  -3.7761350365755572e-03  -6.3894226304107129e-03  -6.7565213525907775e-03  -2.6412132839434064e-03  -3.1354260412258632e-03  -6.0615879935008825e-03  -4.5299348299782200e-03  -4.7825875218029329e-03  -3.1069494875636148e-03  -4.0544149067938701e-03  -2.7200441982642085e-03  -4.3091397714497730e-03  -4.6011484174919475e-03  -3.7146003749678608e-03  -6.3763859524620971e-03  -8.3224205980311390e-03  -7.1098448338805763e-03  -8.6708807717154786e-03  -4.6661339054650114e-03  -5.8297499865942824e-03  -7.1277118818416372e-03  -2.6341711034929402e-03  -2.5328927212218246e-03  -3.7720934771705117e-03  -3.5269248120402838e-03  -1.5723801222321037e-03  -3.6367297439470420e-03  -3.5079007805807667e-03  -5.5228049155438943e-03  -2.7027064910311047e-03  -5.0026231032841185e-03  -3.8149344609912672e-03  -4.7403784858569614e-03  -5.1129342722283132e-03  -4.1691989879033085e-03  -6.3470183749141902e-03  -6.5122689638235694e-03  -2.2956571532749851e-03  -4.2973646274844096e-03  -4.8014289757687227e-03  -5.3019444423639591e-03  -3.7368766411046000e-03  -7.3635799034675225e-03  -5.5248556851815699e-03  -5.2811387402058891e-03  -4.9018669999060967e-03  -3.7912060653430084e-03  -6.6422337478942101e-03  -5.4921713748314763e-03  -5.8499906071034398e-03  -4.9827591013907810e-03  -4.5962374405102042e-03  -2.8848348664299727e-03  -6.1723114824974159e-03  -5.8847107714730135e-03  -7.6137149915574557e-03  -4.2588455709393867e-03  -7.9064846110565006e-03  -5.2987458175329794e-03  -2.4103167307854365e-03  -3.9200730225990143e-03  -4.6167663732395595e-03  -2.9641950554659758e-03  -6.1094123340770636e-03  -9.0227859082989970e-03  -7.6077566697256519e-03  -3.9384106285887868e-03  -3.4589029300651441e-03  -4.8121907898975008e-03  -3.5055733402389253e-03  -3.8375761514760683e-03  -6.0888433004805719e-03  -7.5472356161148555e-03  -2.3343995389631879e-03  -6.1081921562556327e-03  -5.9118899373097403e-03  -5.7923679494193605e-03  -2.9560210308873592e-03  -5.7358709244719856e-03  -6.1199689988407514e-03  -4.1356694248784777e-03  -7.5555140088050376e-03  -7.3920466859781001e-03  -3.3624075292728339e-03  -4.7738518093867538e-03  -4.8389782506072726e-03  -2.9330950208698281e-03  -4.1674967431329004e-03  -6.6389607033298190e-03  -7.0131942694400644e-03  -5.3253013125627450e-03  -3.2557582644427846e-03  -3.3226427073139854e-03  -2.8616153972596077e-03  -7.3980366895696134e-03  -5.3623182025284884e-03  -3.7071296143071611e-03  -4.0240256956508074e-03  -3.3790383263981776e-03  -5.8637909802524320e-03  -4.9109294681810370e-03  -5.2990498312778609e-03  -4.5531923547719099e-03  -7.3274437384004834e-03  -2.7470405899281624e-03  -5.5688359200392213e-03  -4.7677988453449878e-03  -4.0438570044172067e-03  -1.9638649312586293e-03  -6.5820311655377349e-03  -3.5311483218488315e-03  -5.4891005213797217e-03  -6.7211287516509687e-03  -2.6747151086090630e-03  -5.5634037082008371e-03  -7.3477741822322992e-03  -4.2301774284736835e-03  -2.3630288696826480e-03  -2.9546215680323184e-03  -3.5000307728885413e-03  -6.1134961316617244e-03  -8.1689047414404067e-03  -5.4332432624428122e-03  -8.2088565202486849e-03  -4.6811586218639713e-03  -4.9935600787108184e-03  -6.8683494319526570e-03  -3.1026880369932328e-03  -3.2914336302826111e-03  -6.6088709578083563e-03  -4.1342657943659851e-03  -7.7689539368983821e-03  -4.9709362610098878e-03  -8.5729980515231556e-03  -3.6147009081558589e-03  -7.1712596822319776e-03  -6.6825634176511817e-03  -6.1647775098855996e-03  -5.6550993050929746e-03  -5.6229900263625862e-03  -5.2527485476159376e-03  -5.2081978487113247e-03  -5.0809070540510709e-03  -8.0682776787252743e-03  -3.3343313919572699e-03  -3.0771961166043325e-03  -2.3074490617570826e-03  -4.0095688027065859e-03  -7.1238090167322424e-03  -3.5481140349414853e-03  -6.5193812066557371e-03  -6.3804157047447855e-03  -6.9827801599147169e-03  -4.4622267178098989e-03  -6.2384850553424652e-03  -5.2747432296716568e-03  -3.3011105057441006e-03  -5.1600074133388487e-03  -2.1665583572173623e-03  -2.9473853249140313e-03  -4.0765297265257378e-03  -3.5372492038693274e-03  -5.0687000088405400e-03  -2.3477028495025934e-03  -3.6299583142957673e-03  -4.8401105921697801e-03  -4.4842371014782645e-03  -8.2152980432217328e-03  -2.0746928623608940e-03  -2.3466533830569340e-03  -3.7613812222741542e-03  -6.7389632186560357e-03  -5.3087755585205501e-03  -5.4147739615832890e-03  -4.3810931689624777e-03  -3.0249263585760606e-03  -6.6288933273289862e-03  -4.5782161106816040e-03  -6.6009599151057481e-03  -7.5510128230582450e-03  -3.9027399140473531e-03  -5.3606528262079376e-03  -4.9000523630337960e-03  -3.5733067970536670e-03  -3.6310441718477512e-03  -6.3105615985129529e-03  -7.1043783811798418e-03  -4.3526718889967753e-03  -2.7238235467930711e-03  -4.3206755812109036e-03  -5.2281783195876324e-03  -4.4961044018591838e-03  -4.3331727770594634e-03  -3.3300720351749310e-03  -4.6686006762670165e-03  -2.9302555172694123e-03  -3.2697549562214355e-03  -5.9183120952113425e-03  -2.1432642612431523e-03  -3.5199932035407965e-03  -3.4804247461728876e-03  -3.8806633568118343e-03  -2.5992474849326551e-03  -2.6640636007397652e-03  -2.7072536446862126e-03  -2.1683436032095757e-03  -4.5097469585984118e-03  -3.1619117519274395e-03  -7.3411264036707538e-03  -7.3610423085519868e-03  -4.8509220922738020e-03  -4.0746996605856515e-03  -3.6983073026753354e-03  -4.4688155684569093e-03  -2.0077782493172769e-03  -2.0454925528731803e-03  -5.5298757687299374e-03  -5.3044167057787559e-03  -2.5935025194144027e-03  -4.2319651821846917e-03  -5.5771198078605009e-03  -6.8573549810775321e-03  -3.1294434417068330e-03  -4.0760314699628776e-03  -2.7297743710004391e-03  -5.1214882371055249e-03  -7.5357288330834713e-03  -5.2899871239753564e-03  -5.2763670491704044e-03  -2.2846270404388819e-03  -3.5298488883854155e-03  -7.9440755420780648e-03  -2.3557642702216929e-03  -3.7967009024750904e-03  -4.9968888292407122e-03  -4.6046220575432870e-03  -4.4989474852959897e-03  -1.6736076513358608e-03  -3.8833472393214994e-03  -3.7096263792394833e-03  -2.2380636020056226e-03  -8.1412144400911865e-03  -6.1670031311726464e-03  -5.3225941864996334e-03  -3.0875338602263584e-03  -2.3833107644465929e-03  -5.4967270814221657e-03  -3.7483670379221093e-03  -7.7663006454624511e-03  -5.0238000097662088e-03  -2.3244080428934714e-03  -4.3411279397468265e-03  -7.6965165462906391e-03  -6.6710007315392717e-03  -3.6853014618877266e-03  -6.8382702052376858e-03  -4.9301805878411943e-03  -6.4173265410402058e-03  -3.1571923882133929e-03  -4.1070093657744194e-03  -6.0063127201123974e-03  -6.6553390841780939e-03  -7.2863062453958167e-03  -7.6964603984569415e-03  -7.4694873506558788e-03  -5.9125443782866967e-03  -7.3702133220464065e-03  -2.4941197087013254e-03  -2.2269647136904081e-03  -4.8072887452957182e-03  -6.1304624858550070e-03  -5.0756567816396441e-03  -6.4498984063838935e-03  -9.2592769634239711e-03  -3.1474931282711744e-03  -2.9449301270670857e-03  -6.5878394251525658e-03  -2.6199834768002761e-03  -2.8028385742826173e-03  -2.2231005908667644e-03  -4.9129603591206907e-03  -2.5514030792328653e-03  -5.6511978704201467e-03  -2.8484492211793464e-03  -5.3936519200793237e-03  -4.1740379312944541e-03  -3.9877422795604450e-03  -9.0570799305143522e-03  -1.0138317978581122e-02  -2.5030186991928756e-03  -5.4968816253344972e-03  -1.8818990922855716e-03  -4.1384297532650553e-03  -4.3843419845110160e-03  -2.2430720450282177e-03  -5.2952206373270399e-03  -5.4548044180982433e-03  -4.7283342951580801e-03  -3.4857239599555469e-03  -5.9373939958593082e-03  -6.4505697705484234e-03  -3.2917113931501046e-03  -8.4321771107919111e-03  -2.7753756663487462e-03  -3.3880350739904242e-03  -6.6343103177768170e-03  -3.3903958014798318e-03  -8.2188736156527005e-03  -5.7391921789127411e-03  -4.4821502212464438e-03  -4.7961853982395296e-03  -5.2879006113554904e-03  -2.7502491596217097e-03  -4.2844396118727557e-03  -3.6232562784459248e-03  -5.8897476737782752e-03  -5.0500231797811794e-03  -3.8047112841307672e-03  -2.8695474623200057e-03  -2.6109710507362361e-03  -4.4010589783035903e-03  -6.9556721719788890e-03  -3.7655336554510981e-03  -2.6486189801527490e-03  -5.9848350986221460e-03  -2.1214255325366130e-03  -3.4834113869593626e-03  -2.7822068551602839e-03  -3.4935698050408428e-03  -3.3161556682937609e-03  -3.5597292057186268e-03  -5.8252264678865465e-03  -3.4723692310304542e-03  -2.4974239369605299e-03  -3.9893753560558114e-03  -4.4844675951859246e-03  -2.3139227199690904e-03  -2.4233760425553361e-03  -2.4580267367112483e-03  -7.5124490784966398e-03  -7.1248194768242790e-03  -6.7508132116246428e-03  -3.5577489828348447e-03  -8.5538360240941681e-03  -6.9457232459433369e-03  -3.6102708521694254e-03  -4.8847508811791706e-03  -3.2837473807638311e-03  -8.7446890439217811e-03  -3.8719742406863227e-03  -2.0893101420656926e-03  -7.9275101308444312e-03  -4.9592307738812163e-03  -9.7906812092304653e-03  -9.3233639544640767e-03  -3.4823534802729855e-03  -1.7136579152686835e-03  -1.4753207966043188e-03  -1.5602600464383776e-03  -6.2473580116141252e-03  -3.5415336097400153e-03  -8.9150376974696799e-03  -2.5013788483979342e-03  -2.0712550758127737e-03  -2.0693797426788616e-03  -4.0277418212577385e-03  -4.3674584416739269e-03  -5.9131401781822579e-03  -3.6589504117523516e-03  -5.3082938113831061e-03  -3.7941053594486855e-03  -5.3463871398325979e-03  -6.9151086556945365e-03  -5.6916275326247571e-03  -2.9461512009512185e-03  -8.1399359685671961e-03  -5.7776017638232220e-03  -8.7894647425557915e-03  -4.7753808486827518e-03  -6.8255402753765529e-03  -6.4320634404781288e-03  -4.6801428611050909e-03  -6.3763348966537764e-03  -6.0735772906911119e-03  -5.9287966783802253e-03  -6.7330875164034352e-03  -8.5188840305092210e-03  -8.8842608430434560e-03  -3.0593742246608838e-03  -4.3181037801334103e-03  -5.0429402371183719e-03  -3.3102233965722795e-03  -6.6181743541957553e-03  -2.6600960719815759e-03  -6.2002693702378538e-03  -4.7670930449281680e-03  -5.0596629730288072e-03  -7.8065874487965557e-03  -4.1505480963162306e-03  -4.9382962569118798e-03  -5.3676412286111771e-03  -6.9861639457756619e-03  -6.1568464665713247e-03  -3.7618138950014876e-03  -2.8243440197619654e-03  -7.6922508593040380e-03  -3.2538789855651395e-03  -2.9646363544008907e-03  -6.3533448730232114e-03  -4.6764848631109836e-03  -5.9298296231586178e-03  -4.2886092439945022e-03  -6.0356707840629447e-03  -3.1212335552745023e-03  -5.7986743915190700e-03  -5.6222414063042212e-03  -4.3474845251783257e-03  -3.9731597422102806e-03  -3.9409592182542905e-03  -3.6435635298563665e-03  -3.7266709708518330e-03  -4.4658349927268167e-03  -6.5448883061206926e-03  -4.7368673002590100e-03  -5.5263002431208417e-03  -5.7027691190895281e-03  -5.2367817081866042e-03  -5.1072154398300647e-03  -3.9482132601936235e-03  -5.1540391131882340e-03  -4.2571835518635621e-03  -4.0143223665885961e-03  -4.6038742886137960e-03  -4.9108557424249388e-03  -6.0521465619036621e-03  -5.9538257847559688e-03  -5.6742541763675535e-03  -4.8421117177389131e-03  -3.0310925888104340e-03  -4.2252475520021754e-03  -4.1751019023917252e-03  -4.2316128969959827e-03  -4.2906553248641408e-03  -4.0790008426015425e-03  -3.9968069344881079e-03  -3.8039964398000263e-03  -5.2294489823250176e-03  -3.2102629651952199e-03  -2.4201265092165481e-03  -3.3090521008116870e-03  -5.6509011220308193e-03  -6.4821877883590043e-03  -7.0290994277140313e-03  -4.1669006171737586e-03  -3.4698841094053089e-03  -5.1313509399976273e-03  -5.5664833706953994e-03  -3.8417203811636227e-03  -8.0410217948184547e-03  -3.7829933741587128e-03  -2.54298628