<?xml version="1.0"?>
<VTKFile type="UnstructuredGrid"  version="0.1"  >
<UnstructuredGrid>
<Piece  NumberOfPoints="6454" NumberOfCells="12638">
<Points>
<DataArray  type="Float64"  NumberOfComponents="3"  format="ascii">0 1.5 0  0 0 0  1.5 0 0  1.5 1.5 0  0.75 0 0  1.5 0.75 0  0.75 1.5 0  0 0.75 0  0.75 0.75 0  0 0.375 0  0.375 0 0  0.375 1.5 0  0 1.125 0  1.5 0.375 0  1.125 0 0  1.5 1.125 0  1.125 1.5 0  1.0625 0.4375 0  0.4375 1.0625 0  0.5625 0.375 0  1.125 0.9375 0  0.3854166666666667 0.6979166666666666 0  0.8049568965517241 1.130387931034483 0  0.28125 0.28125 0  1.21875 1.21875 0  0.2175662878787879 0.9079071969696969 0  0.5625 1.303571428571429 0  0.8290441176470589 0.2738970588235294 0  1.303571428571429 0.5625 0  1.2578125 0.2421875 0  0.2421875 1.2578125 0  1.010416666666667 0.6979166666666666 0  0.2051282051282051 0.5216346153846153 0  0.9856455736880344 1.297298524562678 0  0.7653719096334186 0.5079390451832908 0  0.5481770833333334 0.8606770833333333 0  1.039462506743128 0.2044177382376396 0  0.5828641541157527 0.6178675878563986 0  0.9136904761904763 0.8913690476190476 0  1.3125 1.03125 0  0.6409183354192741 0.1798341677096371 0  1.281668526785714 0.7820870535714286 0  0.1875 0 0  0 0.1875 0  1.5 1.3125 0  1.3125 1.5 0  0.1920012972225798 0.7153938510340165 0  0.4043073677566794 0.4982626425332328 0  1.054735085357395 1.117171638214202 0  0.9375 0 0  0.5625 0 0  0.1875 1.5 0  1.3125 0 0  1.5 0.5625 0  0 0.5625 0  0 0.9375 0  0.5625 1.5 0  1.5 0.1875 0  0 1.3125 0  0.9375 1.5 0  1.5 0.9375 0  0.4468932545895913 0.1802144181965304 0  0.7987562970593343 1.318357727289711 0  0.6320399113235965 1.037924776639822 0  0.2603996068459564 1.080712106845956 0  0.3802379261363636 0.8658558238636362 0  0.3950892857142857 1.331473214285714 0  1.229910714285714 0.4095982142857143 0  1.13745405880473 0.5879074784276126 0  0.7482946595664349 0.917427298948138 0  0.8625423372573767 0.63562835295355 0  0.9012540315035069 0.4192242537897745 0  0.6862861647268528 1.220560482834343 0  0.1224516396650128 1.023194379059598 0  0.125 0.28125 0  0.3042571223994863 0.1326690407998288 0  0.4149781713917952 0.3488154858246145 0  1.359375 1.171875 0  1.3359375 1.3359375 0  1.131854448751258 1.346034816250419 0  0.84375 0.1212988551125148 0  0.1361607142857143 0.1361607142857143 0  0.691638521804216 0.3135510227244841 0  1.131379139752747 0.7872570780892659 0  0.9688853304056201 0.5429870982608649 0  1.134057265332395 0.3075921335077801 0  0.1060987903225806 1.21875 0  0.1387129645862553 1.361715427487219 0  1.393901209677419 0.28125 0  1.361287035413745 0.1382845725127811 0  1.21875 0.1060987903225807 0  0.3601433665263453 1.180455866526345 0  0.5483798738512705 1.157949853770241 0  1.36815753200686 0.4172967302747542 0  1.187531723571597 1.085953361785798 0  1.401785714285714 0.65625 0  0.65625 1.401785714285714 0  0.09804407994526333 0.84375 0  1.402254384056937 0.84375 0  0.28125 1.403363735808893 0  0.925464184745229 1.040966878346683 0  0.9340282126721275 1.174186719212852 0  0.8797957988728348 0.7651628218565172 0  0.9934051945542568 0.3266495984636094 0  0.203125 0.3887553418803418 0  0.3141644363520071 0.590454276924375 0  0 0.46875 0  1.254999444628736 0.9118761107425289 0  1.03125 1.5 0  0.3213923331757561 0.9738827583030052 0  0 0.65625 0  0.1159730568910257 0.609375 0  0.5141588149450601 0.7319349350549398 0  0.5326188770927806 0.499793044891493 0  0.6693710930845284 0.4331752184013763 0  0.7121702197229691 0.6260790780451906 0  1.234475471272342 0.6664938523856012 0  1.098390770327214 1.229886041743451 0  1.013464781580893 0.8203484622190179 0  0.2952629260823795 0.7791860223918741 0  0.4928385416666666 1.401785714285714 0  1.21875 1.5 0  0.6298376402880013 0.7702339567996885 0  0.7848608254810038 0.3893687681820236 0  1.5 1.40625 0  0.4622923140598757 1.236370233688302 0  0.4667991207677928 0.9473088592382519 0  0.2981266305022628 0.4537778927841646 0  0.84375 1.5 0  0.9008085981204581 1.384216576384643 0  0.9616882272291621 0.1155730914816442 0  0.5035849743784865 0.2782669836795798 0  1.009598009491631 0.9590831193486247 0  1.105310675430652 0.1118663280349183 0  0.9288474621627256 0.2227857609567891 0  0.7464170347051563 1.031945227193052 0  0.1125198733612451 0.4565759846003609 0  0.841690222029119 0.9722978654718903 0  0.4672907609250232 0.5973206048957169 0  0.5437787095683263 0.1151781905475824 0  0.7536044163845748 0.1896192335637668 0  0.65625 0 0  0.7049920363331066 0.09569941760663599 0  1.40625 1.078125 0  1.39081588470667 0.9535067694133395 0  1.40625 1.5 0  0.6375104178177308 0.9268732242701165 0  1.003645772935292 1.399729634730415 0  0.1610182417168329 1.124880958145783 0  1.304862449892061 0.3348605478786471 0  0.8685031591756179 0.5174815394805063 0  0.203125 0.2142857142857143 0  0.46875 0 0  1.236252628961601 1.388617949258287 0  0.6528472422531054 0.5380411271234069 0  0.8059365139027533 0.8342920789922936 0  1.210984939277725 0.5129097255512943 0  1.166392387042105 0.1947779113806861 0  1.03125 0 0  1.112027098777656 0.6868999874317245 0  1.4091796875 1.2626953125 0  0.7056210334910562 1.122831931927321 0  0.8445532731910484 1.225781273471752 0  1.401785714285714 0.5192199888552865 0  0.5315992325579575 1.02511262900491 0  1.40625 0 0  1.5 0.09375 0  0.09375 1.5 0  0 1.40625 0  0.09828267889765753 0.7453580504435201 0  0.2137299928547555 0.6195416563936835 0  0.191293077366709 0.8134420362003882 0  0.395652989337951 0.09620832696794322 0  0.3786395303236629 0.2546156254865724 0  1.105082759698279 1.033286095599126 0  0.09375 0 0  0 0.09375 0  1.269539180892899 1.136742542678697 0  0.4693126788152344 0.427799606155492 0  0.6022922682526717 0.2709632077670539 0  0.286537769267488 0.682999829576168 0  0.431696207163009 0.7833932160815852 0  0.6864071374811688 0.8459705255349474 0  0.7528727250742914 1.403406392299215 0  1.40615841291152 0.7499896558614008 0  0.46875 1.5 0  0.28125 1.5 0  1.5 0.84375 0  0.65625 1.5 0  1.5 0.46875 0  1.5 0.65625 0  1.21875 0 0  1.5 0.28125 0  0.84375 0 0  0.28125 0 0  0 0.28125 0  0 0.84375 0  0 1.03125 0  0 1.21875 0  1.5 1.03125 0  1.5 1.21875 0  1.203254432787244 0.991934092179911 0  0.7018429057870754 1.316240552056942 0  0.09232383443139219 0.9359101690420062 0  1.40390625 1.40390625 0  0.2348931380369949 0.995323396873026 0  0.3477301897825538 1.059746137541629 0  0.2397198755521273 1.168072125048833 0  0.21928098141281 0.08974206793316726 0  0.09164332482786468 0.3669827664371529 0  0.4604861261832766 1.147925083553434 0  1.208242546284113 0.8346339808272811 0  1.042270885119771 0.6063462845058686 0  1.320424270852333 0.6988339884515781 0  1.018211345242011 1.19612913087091 0  0.3232572989405801 0.3642302377411452 0  1.219683471513571 0.319825657354259 0  0.9022918689243919 0.3281052118114913 0  1.209245485719643 1.305564994554257 0  1.051234566759267 0.5217852582666107 0  0.3673510104646698 1.413627432420576 0  1.295769937043816 0.4720643981603306 0  0.3072023010063974 1.318381411439101 0  1.141690261405714 0.3964585327199988 0  1.132920129606929 1.151700997493917 0  0.4797323103182937 1.318677829548113 0  0.8975459458359925 1.296170152543854 0  0.464209749529605 0.8633392490855897 0  0.2934839260221656 0.8659218053661386 0  0.5291505402246311 0.1980703646347806 0  1.129554686622487 0.4893579115624633 0  0.6803878781969045 0.7035160631177291 0  1.32373046875 1.25048828125 0  1.32216796875 1.41767578125 0  0.5499851861317793 0.9439128053349233 0  1.022629866909724 1.040850270203209 0  0.5745442708333333 1.417645342938312 0  0.6210905905518814 0.07817000059074161 0  0.8251326424747147 1.051763251304391 0  0.9840195129520318 0.4094589843317338 0  1.335304710332526 0.8922471458140904 0  1.056578658899854 0.8909713350312058 0  0.6311277392046407 1.158870891931624 0  0.08048866130562571 1.097266504752301 0  0.7899471681381695 0.5900550615276262 0  0.787583911300231 0.6744258112570235 0  0.9253568605083915 0.6931779950154204 0  0.6069241236579608 1.236016193461046 0  0.9754544598564333 1.105608345312828 0  0.5891224709431884 0.6993621756793521 0  1.20518939408778 0.7458807514137317 0  0.7661039078070937 1.202429845202379 0  1.160750676252366 1.424456431149488 0  1.07906062607374 1.432028171475168 0  0.3800251736020173 0.4214243130004857 0  0.9386398271504294 0.6156244973145778 0  0.0625 0.234375 0  0.203125 0.2933407738095238 0  1.215434655272782 0.5908176357312523 0  0.3862873976850203 1.253958025454808 0  0.9642783311550196 0.7603191879845486 0  0.07907187269262334 0.5337704210040105 0  1.05323270401054 1.338218592033867 0  0.7809244217906405 0.07297738156489482 0  0.8538188665025647 0.1992768958275427 0  0.9002757663302332 0.06810835486946346 0  0.3896574912364178 0.6177519597715768 0  0.8312147565658268 0.4504658003252042 0  0.6060876899209792 0.4769383705177015 0  0.6973120163099531 0.973865749266754 0  0.2220506518942812 1.34123409472246 0  0.2016535060668421 1.419937676612376 0  1.067204461774397 0.7475876083618238 0  1.126113744622621 0.8622904019182541 0  0.3283697934586307 0.06033102762239553 0  0.3141768357227177 0.2102768223058998 0  0.8836591735735614 1.110539499889141 0  0.9335121559963067 0.9650712587476813 0  0.489881977219376 0.3554687673286838 0  0.1635028372004782 0.9601830799237989 0  0.190064339368102 1.055218085849877 0  0.4693032589410306 0.1089149617768512 0  0.826087350728517 1.388004148744978 0  1.071391321568866 0.357735705332231 0  1.056880377786583 0.2807740346831144 0  1.3359375 1.1015625 0  1.4296875 1.1484375 0  0.3906148988360577 0.9415494491776595 0  0.06145603826933142 1.359375 0  0.06985309644022948 1.2846420920388 0  1.438543961730669 0.140625 0  1.43014690355977 0.2153579079612006 0  0.161811455697184 1.281243264907209 0  1.2989767800824 0.08251937661177217 0  1.282654529021692 0.1634516867188552 0  1.343324227095839 0.2175851507697937 0  0.5747241214300347 1.087143402580354 0  0.1502172474800126 0.06370164366342397 0  0.07677312842259779 0.08704698619211086 0  0.06709364565267519 0.1592134266688963 0  0.1305803571428571 0
[...]
<PointData  Scalars="f_16-0"> 
<DataArray  type="Float64"  Name="f_16-0"  format="ascii">1.1366291537042770e-05  3.6222289310385616e-08  2.6354231562023433e-08  6.9984550151978115e-04  3.0112889335267685e-08  4.6566214059759316e-08  1.2443732269703944e-05  1.1369618863834418e-05  8.8735115610219300e-04  1.1273200856004865e-05  3.2658532244479951e-08  1.1366121521832477e-05  1.1367856332738599e-05  2.6466436554770926e-08  2.8265089225112033e-08  4.8953833632399402e-05  3.3102896305961635e-04  3.0301662683368686e-08  1.2938228423044279e-05  4.8618118172956285e-05  2.4936781174908582e-04  2.6733015634834869e-04  3.8898723048162541e-04  8.9402392407818992e-04  7.4649535461155173e-04  1.1399957665071325e-05  1.1754158086372450e-05  3.0511422273718263e-08  3.0975611302394326e-08  2.7587107019460637e-08  1.1367213418744260e-05  3.0202636880830517e-05  9.5438305548114293e-05  4.5252329684302523e-04  3.2908101070586088e-05  3.4506796153318766e-04  2.8687360052480169e-08  1.1342294138257346e-03  7.5678156539460092e-04  1.2201587361861707e-04  3.1566891147448891e-08  1.4342233095561753e-06  3.3377798464429149e-08  1.2124286535858970e-05  3.1009597398182269e-04  7.6694046235714869e-04  1.2405385247386586e-05  1.5394164243921092e-03  8.9924336660322074e-04  2.9135554809524261e-08  3.1762655057404737e-08  1.1366226510685811e-05  2.7357596180979362e-08  2.6501836848819362e-08  1.1370741306655327e-05  1.1368675684673318e-05  1.1384976233990898e-05  2.6439766186979183e-08  1.1367068844498178e-05  5.4348829725373608e-05  1.8411691146999688e-06  8.6865108852073229e-08  5.4897650854190190e-05  1.1938303879642578e-04  1.1368843666018462e-05  2.2970610750185691e-05  1.1368524054682867e-05  2.7838744926125648e-08  2.3099960752004029e-07  9.5468874511860145e-04  1.0677609385824389e-04  1.5862680583621151e-07  3.4633608590237794e-05  1.1368315538938487e-05  1.9157393825447715e-03  -1.1502589199308464e-08  4.5766998052219860e-04  2.8513238602997205e-04  7.0871554042606778e-04  7.2148438509180642e-04  2.9754400103288311e-08  -6.6321848844413215e-06  2.8650844532321863e-07  3.2459191430463151e-05  1.2920279797168402e-06  2.8278221202027447e-08  1.1367419171050766e-05  1.1366790644373920e-05  2.6914034216434007e-08  2.7120413165030655e-08  2.7791637488105825e-08  1.1385223438869646e-05  1.4254997267331692e-05  2.7087085011329175e-08  4.7071762185769652e-04  3.8092758890565059e-08  1.1999175336180137e-05  1.1369212092153826e-05  1.0121358761154916e-06  1.1366581818657879e-05  9.5692052268403374e-04  7.1200485104950292e-04  4.4051695717889074e-04  2.9241889726619821e-08  1.1313427160455597e-03  3.7921969327876803e-04  1.1373942440218640e-05  5.0475567207215719e-05  1.6065944893645245e-04  1.1751020719821949e-05  1.1370268840189994e-05  1.1712134636126177e-05  8.4300275295854917e-04  7.7333663838646263e-04  3.2153733177686208e-05  4.7637319137225977e-04  3.0852381082791649e-07  8.7463472730090635e-04  2.2522742639710224e-04  1.8064075714049798e-05  1.1378723031762366e-05  5.9961936213449288e-04  1.1329821136710075e-03  7.7315636754995348e-07  5.2785471821611832e-04  1.1492228720702118e-05  3.3007132374159849e-05  1.3938391118437517e-03  1.8648612287126157e-05  1.0742054316724313e-04  2.9096643794067621e-08  4.1883485579189402e-06  6.2154170045389343e-04  2.8342822408091955e-08  2.9416795464871993e-08  5.0347041083834533e-04  2.9370798092750600e-05  9.9670282760266687e-04  1.3331238425966650e-03  3.1865691464672421e-08  3.0681104399054442e-08  3.0906568621178092e-08  3.0826820686957575e-08  6.9980170283453846e-05  1.4776634307439808e-05  7.7883289926601357e-04  5.1280715787031794e-04  2.4499644765770668e-04  1.1367850810681857e-05  2.7379655058123666e-08  5.5361653900909642e-06  9.4695905510716301e-04  3.2216908562914837e-08  8.1325784854777128e-04  3.4508011718082130e-04  9.5517894535852518e-04  3.0877600373752512e-08  2.8076498957436773e-08  2.8684300801181760e-08  3.8187192044763029e-06  3.6812155518825112e-04  1.5229656617332047e-04  2.5770271337673313e-04  2.6964239795326588e-08  3.0655902632169377e-05  2.6803860790810859e-08  2.6367179818290874e-08  1.1366271061342267e-05  1.1366703122525747e-05  1.1372057060282757e-05  2.3997363684801066e-05  1.1448768042531552e-05  3.2678161150185061e-08  3.7093734119077010e-05  5.7261445570894783e-04  3.9810470727479721e-08  8.0951959424296385e-08  3.9687271471169314e-04  6.2030650154867287e-04  2.6965648322097374e-07  3.6314577855810204e-05  1.5900389478916115e-04  1.0266509362708317e-03  1.6222658840593930e-05  1.1586444166800055e-07  1.1366840278870477e-05  1.1366183592210202e-05  2.3577386618627019e-07  1.1495678304601085e-05  2.6466939346444782e-08  2.7813043363943667e-08  2.7766166383908110e-08  2.6467397423201446e-08  2.9655751581014962e-08  3.3014150621756636e-08  1.2090875641087516e-05  1.1369157546199349e-05  1.1368282585691492e-05  1.1367408094777372e-05  1.2230022870683669e-05  1.5313405500553412e-04  1.9447811722998496e-04  1.8868384788534802e-05  1.1368754560792447e-05  6.9536719435508022e-04  1.1373614921433566e-05  1.1566308702571912e-05  1.1367709597130631e-05  1.3714167109184549e-08  7.0845945793127400e-05  1.1931701551104780e-05  2.3333077226734771e-05  1.4584781543059990e-06  1.5897639813639202e-07  8.2588598950022107e-04  1.5968870107987503e-03  2.7810538085402707e-08  3.1028314609141043e-08  8.5607274129660812e-04  1.9525402366200216e-07  1.1366586747419022e-05  2.7605051585723784e-08  1.1366958797527785e-05  2.8438211661062030e-08  8.2942453717081059e-04  1.1409073984819851e-05  2.2134815353060409e-04  9.0567777489259811e-05  1.2837612373965619e-05  4.4533134169286280e-08  3.7472720248422863e-08  1.0435499481564784e-03  5.5928035600697336e-04  8.0906796896151141e-04  1.1617662634931736e-04  8.3482507131280449e-04  1.1434557133769177e-05  3.1451018717591702e-08  7.1608577364604457e-04  3.4789588941511436e-08  9.9438981653382726e-06  2.9405468720529828e-04  3.0122497534687102e-05  1.1367968814393718e-05  1.2936945911653567e-04  4.0393021458260786e-04  1.1535987542447304e-04  1.4587739381765838e-05  9.2631118550190266e-04  1.2407203804522824e-03  1.5564218438232158e-06  1.4300001931477773e-04  6.0719274536315683e-04  3.6445919879794184e-04  1.4043227737678065e-03  1.5806299040850697e-05  3.9413797732431493e-04  2.4611069144069228e-03  9.0330200527595514e-08  1.1373844597001759e-05  1.7143042973228719e-04  1.1589543973350550e-05  5.4229051338279359e-04  3.0073812990384368e-08  2.9923789773468989e-08  2.9357781962219671e-08  7.2407163593609725e-04  1.7446894605235833e-06  2.7810548077969569e-04  5.3692711712505692e-04  1.1366855762345795e-05  1.1366510687133225e-05  4.0979979310310317e-05  1.1756908505626846e-04  3.3088846834945856e-08  3.6670273181511036e-05  7.2805961058895611e-04  9.0740580783778269e-04  1.4988227734660786e-04  1.1369065407633490e-05  1.1368275782999649e-05  3.2088499267615910e-08  3.7417544754173585e-05  2.8774276171535351e-08  2.8671144063000940e-08  2.0211818809395802e-04  1.3234435484131075e-04  1.5949879261418475e-05  1.1366845381224848e-05  1.1367166668972324e-05  2.6699289572987497e-08  2.6789636025233780e-08  1.1367141917731327e-05  2.7418733351599962e-08  2.7464415072672687e-08  2.7176050829212665e-08  3.3031975971520109e-05  6.7700111818649002e-08  -1.0673260945428989e-06  4.9090967868112342e-05  2.7705019449027254e-03  2.6871005209515238e-08  1.1366500221443663e-05  1.1986061980675465e-05  1.1367930122159858e-05  2.8720671374174843e-08  3.2156007761848683e-08  3.6600163881388537e-08  5.4800626579787269e-06  1.1367510520184471e-05  4.8445898618342860e-04  9.9714784301994062e-04  8.8892540933739996e-04  1.5582212365436858e-05  2.6830543595804779e-08  2.8106902463353270e-08  1.1367682828575400e-05  2.6778063896381180e-08  4.6932235051686308e-04  1.1569979885162691e-05  1.1370613542009949e-05  6.8512386990292239e-07  5.3498028763796861e-05  4.0766281663589285e-04  2.9050932054138903e-08  4.5132667923109872e-04  9.4268805625034799e-08  1.2521071252693637e-05  2.8382821039163021e-08  8.0034050483930694e-04  4.7318864327861840e-04  2.7431214255704931e-08  3.1991703914859277e-08  4.0200059069808305e-08  1.1463170609627674e-05  2.7274569675709608e-08  1.2282109319508922e-05  2.9447867030663593e-08  6.1082569982937580e-05  2.6536196397165780e-04  6.2055241383925477e-04  2.7948956514472189e-08  1.2081937399025293e-05  1.1369429909666518e-05  1.1370934205809988e-05  5.3099303587216824e-07  1.3638426010082099e-06  1.2991063248293639e-03  2.8912681729063730e-08  8.5745856319883616e-04  2.8469271762643216e-08  1.0364028965273745e-05  5.9779232376309119e-04  1.1366569335341390e-05  1.4418931861619530e-04  1.0676050496214898e-03  2.0835149265544472e-03  1.1368466321323485e-05  1.1370169210142510e-05  1.6970502636256947e-07  3.7629177152575038e-08  1.6564580800886083e-05  1.1366528234900304e-05  6.9774723439808750e-04  1.2444565622529231e-04  9.3491475351360582e-06  4.4569163834356506e-08  7.6847120317373083e-04  7.2749840749399312e-04  1.1640994877620731e-07  4.8086526951839443e-05  6.4796786906381771e-04  3.2840583141491346e-04  1.1368938128656727e-05  7.7110823716829288e-04  3.5591114586286198e-06  8.7950439898989866e-04  1.0409986067385474e-03  1.3096220840869408e-05  1.8111626250598604e-04  3.8342609381200075e-05  1.0459914462786475e-03  7.5125931279343720e-04  3.0709458179313314e-04  1.1279209417744053e-03  2.8678508482522457e-08  2.8189830416741793e-08  3.1607807338203605e-05  1.3555333017011386e-07  3.1666957940489669e-06  1.0538325986946158e-05  1.7769666997572583e-05  1.2134191189123594e-03  4.5378141169380014e-04  5.1255411332426050e-05  6.5564183349196310e-05  1.1383525236755706e-05  3.4646983319681386e-07  6.7333917675110540e-08  1.1163951559980454e-04  5.8681062232827644e-07  1.6065770350946776e-05  1.3179369989459384e-04  1.1367919232024100e-05  1.2472702651725330e-03  2.6510785372238121e-08  2.7290256120799737e-08  1.3362265797927933e-05  1.1494531255072233e-05  1.1407629401110311e-05  4.3145724542539442e-04  1.0723753976819500e-04  1.8097896620954054e-03  1.9625946519512063e-04  1.1366152855385539e-05  1.1515526533989150e-03  1.0561458841131760e-03  4.3673545108277947e-04  6.7645493622949502e-05  3.7306875642284659e-05  6.9042900222678191e-04  2.2645014483359531e-04  2.0665178057806692e-05  1.6040302571836115e-05  8.9108447956731131e-05  5.9721275738591165e-04  8.9894386479049955e-04  8.5766036617752688e-04  3.2417400061752335e-08  8.3622804245590626e-06  1.1438518416173963e-05  1.1372706116459234e-05  2.7790760749659681e-08  7.3859803201033582e-04  3.0501694481500398e-08  2.9683721885388700e-08  3.6689651698404083e-04  2.7321239690664779e-04  1.9467719465183602e-05  3.2301532544899342e-08  2.7064541547374588e-08  3.3806699229534260e-05  2.8942537437670872e-08  1.1368218110503183e-05  6.9310285294359338e-04  2.8406622901266193e-08  1.1359136978208545e-04  7.9804927095565191e-04  1.4504854436908474e-03  8.9218204223734398e-04  3.1744813125401687e-08  2.7082274802637742e-08  1.1453880725610419e-05  1.1378455257039773e-05  1.0090091629116592e-04  2.3496321249974320e-04  3.5098165070083589e-08  2.7480503464562526e-08  1.1406025149161857e-05  1.2007019552631673e-05  8.6178615192769050e-04  1.1660182266072960e-05  3.1448140254589897e-08  1.1421811189177028e-05  2.7554348004502296e-08  2.7636602899453550e-08  1.2137348262755430e-05  1.3006098186002716e-04  8.5371107288084909e-04  4.1654210359104427e-04  2.9536324205986354e-08  1.1384638201018891e-05  2.3565913464946965e-04  2.8048684340520629e-08  3.9037701295339984e-07  2.1168211011531068e-05  3.1157056226376342e-08  3.0409815515114811e-08  3.0228091759115166e-08  3.4741930831343791e-08  1.1366183937744567e-05  8.1856948065502143e-04  7.6880739142778508e-04  1.1366714911353203e-05  5.6988870170344137e-05  1.0173855381702418e-04  2.9872398542988154e-08  4.2864037329494404e-04  7.6349289768504343e-04  2.8345297562407866e-04  4.4671353619977621e-04  3.8891814514759070e-04  6.5606840413950549e-04  1.1318590946743106e-04  2.6493162092200112e-08  3.4538339491134750e-06  3.0811654416510360e-06  7.5750572558157779e-04  1.1367793345655249e-05  6.8316529644048621e-04  2.8031218664284429e-08  1.5798108344704319e-05  3.3155261579880167e-08  2.6486643865762807e-08  2.6702229332918425e-08  1.1496799536971059e-05  3.1722686262106330e-08  1.1367974251302010e-05  1.1368087825229992e-05  4.2301073477156225e-07  7.0486490358582349e-04  3.3839880281149352e-08  9.6161023533299691e-04  9.4802127571497208e-04  2.8554892936736517e-07  2.7083552586435178e-05  7.3251562559834430e-05  9.2849622466742315e-07  1.1368125465334396e-05  1.1366369976969440e-05  1.1366357448372062e-05  3.0928439026107873e-08  2.7046567933040584e-05  3.0983910311185511e-08  2.7048469972221785e-08  4.1231925912546771e-06  9.1638293416397198e-07  3.5986510855721656e-04  1.1367428802971060e-05  2.5332180594025446e-04  2.7588147752790006e-08  3.0319469395896723e-08  3.1292775452366461e-08  4.5540641392721286e-06  1.0611118228736679e-03  2.7432916019965988e-04  2.8646645590410783e-06  2.6451097772228262e-08  3.4125500785365134e-08  6.5823140740579499e-08  2.8149675674940088e-08  4.2738719078427306e-05  6.7654364532809848e-05  1.6034770232088784e-04  3.1730376870741309e-05  2.6334620724975154e-08  3.3885689464091403e-08  1.2476608062292828e-03  2.7573941798338992e-08  1.3289061719005440e-05  2.1293805410132350e-05  3.6576747996110876e-06  3.2017135212762557e-04  2.1688637488684993e-04  8.7106963821488673e-05  3.2962815827935902e-04  5.5235182714974494e-04  1.2870538521214679e-06  2.6978614134081552e-08  1.1367019894675913e-05  1.1612117196127767e-05  1.2202356085530338e-04  3.1933850020866737e-07  4.1307040535472562e-04  2.7151001201976382e-08  4.7108785468553138e-05  2.9949276724706127e-03  4.3203475874633203e-05  2.6586357645187049e-08  1.1367916527276509e-05  4.4275203194772830e-04  1.1370689115784721e-05  1.1367726195764345e-05  2.6663313754768764e-08  1.1366677887470864e-05  2.9491743819614005e-08  1.0524535259660841e-03  5.4488476778746060e-04  1.1368921115908950e-05  1.3832998782622218e-05  2.3009637009507191e-05  2.1433540188650713e-04  5.3690196337218248e-04  2.4158353388765771e-04  3.6454678916179819e-05  1.8899913693261814e-07  2.6683054091888118e-08  9.0813723937910589e-04  2.1300669059562535e-04  5.5669810181464016e-05  3.0992400912887309e-08  9.4925200641442700e-05  1.0219217279535191e-03  1.5152319753924981e-05  9.4276358751766841e-04  1.1963250601007379e-05  2.1486340473278622e-07  2.4867912395152109e-06  1.0701135893017131e-07  1.1368684299899865e-05  1.1514966485486454e-05  1.1375940704754807e-05  3.2647647812901469e-08  3.0609390169956894e-08  3.8112865146232574e-08  2.9174544029491611e-08  2.6749653760169616e-08  1.1431352773009744e-05  3.9363497996191762e-04  8.0258623661643173e-04  7.9189467562533131e-08  3.1371087494974325e-08  3.0412721472647646e-04  5.5059924924580447e-04  1.3585172039772839e-05  1.2799483072876587e-05  2.7120615727965326e-08  3.6454282377104799e-04  1.8333474345698985e-04  4.0352765660229384e-04  8.4340996015985412e-04  2.7699891254022110e-04  3.7044769453408534e-04  5.6094613033993870e-04  2.9866298736402464e-08  6.5403904361972201e-04  1.1367266906981485e-05  2.6455333724537687e-08  2.7119186669408981e-05  1.2553111036789726e-03  7.3814933279472310e-04  6.6584662055159188e-04  1.5730567941404095e-04  1.5983320877296308e-05  7.0514820801353145e-07  1.0130086397002254e-04  4.6250994511172098e-04  -1.4804216159348815e-06  2.7615563489170067e-08  2.7275425787030914e-08  2.7806895591033513e-08  3.1617177751439666e-08  1.5488214810219831e-07  1.9092286145332242e-03  1.0593889333670734e-03  7.9301960729687929e-04  3.2882765407762420e-08  2.6150035923626020e-06  8.5716441775744311e-04  2.8690209950125583e-08  7.3145461520250155e-04  7.7720509110661080e-05  3.1493455586356802e-07  7.0743708379847903e-08  1.1367202002420719e-05  1.3145158486272856e-05  1.1369883677220124e-05  2.8519197529599210e-05  3.2276297669644300e-06  3.0394483111026113e-08  7.9710331686197119e-04  7.0493219503604452e-04  1.1366466773293844e-05  1.1366283639733307e-05  1.4705031655633666e-05  1.1368470314061688e-05  1.1366229379715349e-05  5.0717114242340877e-06  2.8499360415885344e-08  2.8928898655189608e-08  3.2720807175473662e-08  9.0432750653790963e-08  5.8534434324789950e-07  1.1370124185023726e-05  1.1369895330292414e-05  1.1369392947267345e-05  1.1412331121799752e-05  3.2023880349258575e-08  1.1367651209201514e-05  2.8035662717310075e-08  1.1366259773940861e-05  3.1692330385588478e-08  2.6426687038185375e-08  1.1366920180621913e-05  3.2827516512936265e-08  2.9367493956455336e-08  -1.1427690024063692e-08  1.0240937595756542e-05  2.2363181965489744e-04  1.1786988816433318e-05  3.9297480290792069e-04  6.5061226481896185e-04  7.3381690465193277e-04  1.1368912795197167e-05  2.7842236326772180e-05  1.1803911964332378e-05  1.1369701092623890e-05  2.9118729402290833e-05  2.2418726224184726e-04  1.1402309731960728e-05  2.9188792614069198e-08  -1.8644602301417272e-07  4.3444060662162462e-08  6.2023147720090296e-05  1.7435879437867974e-03  9.0689792572071183e-04  1.0291533409371185e-03  1.0449759514336041e-04  3.3172292999490137e-08  1.6119357303344466e-05  1.1367422734673106e-05  2.4227199427594349e-05  1.1368961914187131e-05  1.1368708550464573e-05  1.1368547559295809e-05  1.1369945774508144e-05  1.2164213998561416e-08  3.3307451476394015e-05  3.6278691541653720e-04  5.4761618320556576e-08  8.3932781451461793e-04  4.2623984525438475e-07  1.6605095775410620e-03  6.7045932328166596e-04  5.5793593703939837e-07  1.0017734091359875e-05  1.1369022341475706e-05  1.4966673892014030e-07  1.1675213199449726e-03  4.2848688036970328e-05  6.5395701256685792e-06  2.5717415835949263e-05  2.9849738625522273e-08  8.7217259828089731e-04  1.0031637456532673e-03  1.1842236408042936e-03  2.6770358753330115e-08  2.8139462611321505e-08  3.0184328420618926e-08  3.1090586964595089e-08  7.7791394349199252e-04  2.8141911016881062e-08  2.7296211063438711e-08  5.9992621231730406e-06  9.8346216922478078e-05  4.8309824921576362e-07  7.3840177381850512e-04  4.4644091102821482e-05  7.9375770126228554e-05  3.5987614649807530e-04  4.2321931473171798e-05  1.0839900758323469e-05  3.3764176477993654e-05  4.4340786702924283e-06  1.1369183281380005e-05  1.1936961075920652e-05  1.1381428555304106e-05  1.1850439520483175e-05  1.1367734889796382e-05  1.1368129717290390e-05  1.1788217854920037e-05  3.5492326549355145e-04  3.2405570946568592e-04  1.1591297812187998e-03  2.9105612071230926e-08  2.8422758053072803e-08  2.8360799178949153e-04  3.1820013182042104e-05  1.1367306455877867e-05  1.1370016427609593e-05  1.1427335453765234e-05  1.1368991274645149e-05  2.7384608770439785e-08  1.1366747875886433e-05  1.1367074383058164e-05  1.1367167613461530e-05  1.1366947526371239e-05  2.0604131051287170e-04  5.2889870853409671e-04  1.3766544722281550e-05  1.8661900843952815e-05  3.3238468073853693e-05  1.2119446349560557e-05  1.2984040418307235e-05  2.6749305106839606e-08  1.1440929444315798e-05  2.7770797310808324e-04  2.7871127053871272e-08  3.0067088043292677e-08  3.7171820533073429e-04  7.9140452043147645e-04  2.8192226582887712e-08  2.9653598342556641e-04  7.9406489638650130e-04  8.4620503686089394e-04  1.5257354740704182e-04  2.7665045486893002e-08  1.1372406361408912e-05  1.1366379211255033e-05  1.1772232021809887e-05  1.5692010129786053e-05  1.5099383863748333e-04  1.3550297240836439e-05  8.7509621541649466e-04  8.0959040911393317e-04  5.2942025061193968e-04  2.6989030231193673e-08  1.5484041415535429e-05  1.1366334191641936e-05  1.1367245555683000e-05  9.5859950306829122e-09  2.8033977784889731e-08  1.1366339548941919e-05  2.8245395776300411e-08  2.6958966090882720e-08  1.2117176561077729e-03  8.1689577053802682e-04  2.9108463229983157e-08  7.5074915701731516e-04  3.5682905435763096e-08  2.7640196090352334e-08  4.9949124074632003e-04  1.1366722371562376e-05  1.1366941569553929e-05  1.1367060681583432e-05  1.1366675142378236e-05  1.8991149139977153e-04  4.1680683491565423e-04  9.9004648650841110e-04  6.6317859