<?xml version="1.0"?>
<VTKFile type="UnstructuredGrid"  version="0.1"  >
<UnstructuredGrid>
<Piece  NumberOfPoints="6486" NumberOfCells="12696">
<Points>
<DataArray  type="Float64"  NumberOfComponents="3"  format="ascii">0 2.5 0  0 0 0  2.5 0 0  2.5 2.5 0  1.25 0 0  2.5 1.25 0  1.25 2.5 0  0 1.25 0  1.25 1.25 0  0 0.625 0  0.625 0 0  0.625 2.5 0  0 1.875 0  2.5 0.625 0  1.875 0 0  2.5 1.875 0  1.875 2.5 0  1.770833333333333 0.7291666666666666 0  0.7291666666666666 1.770833333333333 0  0.9375 0.625 0  1.875 1.5625 0  0.642361111111111 1.163194444444444 0  1.341594827586207 1.883979885057471 0  0.46875 0.46875 0  2.03125 2.03125 0  0.3626104797979798 1.513178661616162 0  1.381740196078431 0.4564950980392157 0  0.9375 2.172619047619047 0  2.172619047619047 0.9375 0  2.096354166666667 0.4036458333333332 0  0.4036458333333333 2.096354166666667 0  1.684027777777778 1.163194444444444 0  0.3418803418803419 0.8693910256410255 0  1.642742622813391 2.162164207604464 0  1.275619849389031 0.8465650753054845 0  0.9136284722222221 1.434461805555556 0  1.732437511238546 0.3406962303960658 0  0.9714402568595876 1.029779313093998 0  1.52281746031746 1.485615079365079 0  2.1875 1.71875 0  1.06819722569879 0.2997236128493951 0  2.136114211309524 1.303478422619048 0  0.3125 0 0  0 0.3125 0  2.5 2.1875 0  2.1875 2.5 0  0.3200021620376328 1.192323085056694 0  0.6738456129277992 0.8304377375553881 0  1.757891808928991 1.861952730357003 0  1.5625 0 0  0.9375 0 0  0.3125 2.5 0  2.1875 0 0  2.5 0.9375 0  0 0.9375 0  0 1.5625 0  0.9375 2.5 0  2.5 0.3125 0  0 2.1875 0  1.5625 2.5 0  2.5 1.5625 0  0.7448220909826522 0.3003573636608841 0  1.027298850574712 1.871151477832512 0  1.331260495098891 2.197262878816185 0  1.207917681892289 1.582765010956622 0  0.4339993447432606 1.801186844743261 0  0.6337298768939392 1.443093039772727 0  2.049851190476191 0.6826636904761904 0  0.6584821428571428 2.219122023809524 0  1.89575676467455 0.9798457973793544 0  1.437570562095628 1.059380588255917 0  1.502090052505845 0.6987070896496241 0  0.2040860661083546 1.705323965099331 0  0.2083333333333333 0.46875 0  0.5070952039991439 0.2211150679997147 0  0.6916302856529919 0.5813591430410241 0  2.265625 1.953125 0  2.2265625 2.2265625 0  1.886424081252096 2.243391360417365 0  1.40625 0.202164758520858 0  0.2269345238095238 0.2269345238095238 0  1.152730869673694 0.5225850378741401 0  1.885631899587912 1.312095130148776 0  1.614808884009367 0.9049784971014416 0  1.890095442220658 0.5126535558463003 0  2.323168682795699 0.46875 0  2.268811725689575 0.2304742875213018 0  0.6002389442105756 1.967426444210576 0  0.1768313172043011 2.03125 0  0.2311882743104251 2.269525712478698 0  2.03125 0.176831317204301 0  2.280262553344767 0.6954945504579233 0  1.979219539285994 1.809922269642997 0  2.336309523809524 1.09375 0  1.09375 2.336309523809524 0  0.9314042474388009 1.662973812215543 0  0.1634067999087722 1.40625 0  2.337090640094896 1.40625 0  1.141616997467638 2.069311773587991 0  0.46875 2.338939559681489 0  1.542440307908715 1.734944797244472 0  1.556713687786879 1.956977865354753 0  0.8264238995344066 1.975424467820646 0  1.466326331454725 1.275271369760862 0  1.655675324257095 0.5444159974393489 0  0.3385416666666666 0.6479255698005697 0  0 0.78125 0  0.5236073939200119 0.984090461540625 0  2.091665741047893 1.519793517904215 0  1.71875 2.5 0  0.5356538886262603 1.623137930505009 0  0 1.09375 0  0.1932884281517095 1.015625 0  0.8569313582417669 1.2198915584249 0  0.8876981284879677 0.8329884081524883 0  1.115618488474214 0.7219586973356271 0  1.186950366204949 1.043465130075318 0  2.057459118787237 1.110823087309335 0  1.830651283878689 2.049810069572418 0  1.689107969301489 1.367247437031697 0  0.4921048768039656 1.298643370653124 0  0.8213975694444444 2.336309523809524 0  2.03125 2.5 0  1.049729400480002 1.283723261332814 0  1.308101375801673 0.6489479469700392 0  2.5 2.34375 0  0.4968777175037714 0.7562964879736076 0  1.40625 2.5 0  1.501347663534097 2.307027627307738 0  1.602813712048603 0.1926218191360736 0  0.8393082906308107 0.463778306132633 0  1.682663349152719 1.598471865581041 0  0.7774174680851571 1.560004941327907 0  1.554204170364662 0.3898593897892066 0  1.842184459051087 0.186443880058197 0  1.358107417651776 1.696381759610015 0  1.18859291992392 1.77598670078022 0  0.1875331222687418 0.7609599743339348 0  1.339536743965101 1.422080365801479 0  0.7788179348750389 0.9955343414928611 0  0.9062978492805438 0.1919636509126373 0  1.256007360640958 0.3160320559396114 0  1.09375 0 0  1.174986727221844 0.1594990293443933 0  2.34375 1.796875 0  2.318026474511116 1.589177949022232 0  2.34375 2.5 0  1.672742954892153 2.332882724550692 0  0.2683637361947215 1.874801596909639 0  2.174770749820102 0.5581009131310781 0  1.443279522965991 0.8870068372898454 0  0.3385416666666667 0.3571428571428572 0  0.78125 0 0  2.060421048269335 2.314363248763811 0  1.088078737088509 0.8967352118723447 0  1.087825368444708 1.454931510884769 0  2.018308232129541 0.8548495425854904 0  1.943987311736842 0.3246298523011434 0  1.71875 0 0  1.85337849796276 1.144833312386208 0  2.3486328125 2.1044921875 0  1.407588788651747 2.042968789119587 0  2.336309523809524 0.865366648092144 0  2.34375 0 0  2.5 0.15625 0  0.15625 2.5 0  0 2.34375 0  0.1638044648294291 1.242263417405867 0  0.356216654757926 1.032569427322806 0  0.3188217956111817 1.355736727000647 0  0.5924956460852111 0.36112522004736 0  0.6594216488965849 0.1603472116132387 0  1.841804599497131 1.72214349266521 0  0.15625 0 0  0 0.15625 0  2.115898634821499 1.894570904464496 0  0.7821877980253907 0.7129993435924866 0  1.003820447087786 0.4516053462784233 0  0.477562948779147 1.138333049293613 0  0.719493678605015 1.305655360135975 0  0.9772457618587566 2.020350128938537 0  0.8764738248887107 1.826219722709673 0  1.254787875123819 2.339010653832026 0  2.343597354852534 1.249982759769001 0  0.78125 2.5 0  0.46875 2.5 0  2.5 1.40625 0  1.09375 2.5 0  2.5 0.78125 0  2.5 1.09375 0  2.03125 0 0  2.5 0.46875 0  1.40625 0 0  0.46875 0 0  0 0.46875 0  0 1.40625 0  0 1.71875 0  0 2.03125 0  2.5 1.71875 0  2.5 2.03125 0  2.005424054645407 1.653223486966518 0  0.1538730573856537 1.559850281736677 0  2.33984375 2.33984375 0  1.166539506212474 1.922878979538754 0  0.3914885633949916 1.65887232812171 0  0.5795503163042564 1.766243562569382 0  0.399533125920212 1.946786875081388 0  0.7866324979014098 2.127719094551316 0  0.3654683023546834 0.1495701132219454 0  0.1527388747131078 0.6116379440619215 0  2.013737577140188 1.391056634712135 0  1.17635437372994 2.213329084238133 0  1.737118141866284 1.010577140843115 0  2.200707118087222 1.164723314085963 0  1.697018908736685 1.993548551451517 0  0.5387621649009668 0.6070503962352419 0  2.032805785855952 0.5330427622570983 0  1.082699501358059 1.667818725183932 0  1.503819781540653 0.5468420196858188 0  2.015409142866072 2.175941657590429 0  1.752057611265444 0.869642097111018 0  0.612251684107783 2.356045720700959 0  1.902817102342857 0.6607642211999982 0  2.159616561739693 0.7867739969338844 0  0.5120038350106624 2.197302352398502 0  1.888200216011548 1.919501662489862 0  1.495909909726654 2.16028358757309 0  0.489139876703609 1.443203008943564 0  0.8819175670410521 0.3301172743913011 0  1.882591144370812 0.8155965192707721 0  1.133979796994841 1.172526771862882 0  2.206217447916667 2.084147135416667 0  2.20361328125 2.36279296875 0  1.395746985657004 1.556054166359645 0  1.704383111516207 1.734750450338683 0  0.9575737847222222 2.36274223823052 0  1.035150984253136 0.1302833343179028 0  1.383966125325753 0.7651479963479179 0  1.64003252158672 0.6824316405528895 0  2.22550785055421 1.487078576356817 0  1.760964431499756 1.48495222505201 0  1.276460980673788 2.004207003584658 0  0.1341477688427096 1.828777507920502 0  1.542261434180652 1.155296658359034 0  1.334627911613854 0.9696897472490321 0  1.30794231473696 1.119420615785191 0  0.7028260459857245 0.4438906910721139 0  1.625757433094055 1.84268057552138 0  0.9818707849053143 1.165603626132254 0  2.0086489901463 1.243134585689553 0  1.934584460420609 2.374094051915812 0  1.798434376789567 2.38671361912528 0  1.206314791201715 1.382064292497919 0  0.6333752893366955 0.7023738550008095 0  0.7796219811205605 1.42573253164258 0  1.564399711917382 1.026040828857629 0  0.3385416666666666 0.4889012896825397 0  0.1041666666666667 0.390625 0  0.989112246382566 1.543537365516289 0  2.025724425454636 0.9846960595520872 0  0.6602885475034063 2.086117390485779 0  1.607130551925032 1.267198646640915 0  0.1317864544877056 0.8896173683400176 0  1.755387840017567 2.230364320056445 0  1.301540702984401 0.1216289692748247 0  1.433170657577442 0.3331052752740999 0  1.500459610550388 0.113513924782439 0  0.6494291520606965 1.029586599619295 0  1.010146149868299 0.794897284196169 0  0.3700844198238017 2.235390157870766 0  0.3360891767780704 2.36656279435396 0  1.876856241037701 1.437150669863757 0  1.778674102957329 1.245979347269706 0  0.5472829890977179 0.1005517127039925 0  0.4669074189005698 0.3416784232954367 0  1.472765289289269 1.850899166481903 0  1.555853593327178 1.608452097912802 0  0.6708955559113426 1.646561631116984 0  0.8164699620322933 0.5924479455478063 0  0.3167738989468366 1.758696809749795 0  0.2788007305565096 1.605499483471246 0  0.7821720982350511 0.181524936294752 0  1.376812251214195 2.313340247908297 0  1.785652202614777 0.5962261755537186 0  1.761467296310972 0.4679567244718574 0  2.2265625 1.8359375 0  2.3828125 1.9140625 0  0.5279531607054191 2.071552361614785 0  2.397573269551114 0.234375 0  2.383578172599618 0.3589298466020009 0  0.1024267304488855 2.265625 0  0.1164218274003825 2.141070153397999 0  0.2696857594953064 2.135405441512016 0  2.164961300137334 0.1375322943529536 0  2.137757548369486 0.2724194778647587 0  2.238873711826398 0.3626419179496562 0  0.1001414910226386 0.234375 0  0.2176339285714286 0.3478422619047619 0  0.2503620791333544 0.1061694061057066 0  2.336445461915368 0.1250451055247424 0  0.2154004640409726 2.3918124
[...]
<PointData  Scalars="f_16-0"> 
<DataArray  type="Float64"  Name="f_16-0"  format="ascii">1.0160309505968684e-03  5.4031281451876939e-05  3.7211034629545854e-05  9.8154275303149953e-04  5.1359126687636843e-05  4.2320524146976752e-05  1.0281720098554996e-03  1.0314314663981098e-03  1.2202381471471189e-03  1.0372018030954187e-03  5.9243500356968513e-05  1.0163101220618225e-03  1.0235331765672368e-03  3.6365835365654710e-05  4.3834664011340467e-05  2.7862047291426362e-04  1.1926626842404980e-03  4.8334692581534320e-05  1.0368853078757091e-03  4.2875668285963545e-04  6.0200246027684509e-04  1.2504996755402409e-03  1.2489005408723079e-03  1.6719363500890976e-03  1.0535217235578388e-03  1.0290540862671295e-03  5.1784742338704332e-05  1.0262717440653827e-03  4.2035991866602719e-05  4.0988710469317216e-05  1.0209183161732575e-03  2.7411565657736178e-04  1.1615263011566068e-03  1.2373743347366074e-03  3.0948791162691258e-04  1.2772734167249989e-03  4.5278358242818747e-05  1.4009279403446671e-03  1.0961022140567539e-03  3.9194791456009093e-04  5.6110082500228420e-05  1.0193185923417151e-04  6.0074164121963437e-05  9.6130288703521962e-04  6.4513316727413421e-04  1.2047947412862222e-03  1.0400729485351447e-03  1.6792630499328578e-03  1.1984918512032787e-03  4.7365003113635853e-05  5.5422754744696678e-05  1.0159581512835590e-03  4.0247412128789608e-05  3.6429465684876287e-05  1.0348192335545665e-03  1.0276737723204762e-03  1.0170507973295186e-03  3.6740372529742538e-05  1.0196395771060996e-03  1.0827151057687201e-03  9.2655104997911190e-05  9.5598524346628605e-05  1.0852858087219690e-03  1.0899741282820138e-03  1.3610680759558193e-03  1.0249859063781632e-03  1.0714290826210290e-03  4.1652395015332971e-05  1.0196259914795774e-03  6.3601219459019794e-05  4.2905312595424588e-04  6.6531276380552278e-05  1.0259414904382955e-03  1.8484519119342895e-03  1.6245909981264635e-04  1.0442825806393572e-03  6.0040748812977506e-04  1.0214773593886994e-03  1.2513792028690826e-03  4.9407994560235732e-05  1.9872708913467266e-03  8.0962477966640864e-05  2.4696608299602378e-04  1.0895497718570209e-04  4.3422120707297285e-05  3.8224605344247139e-05  3.9101798179315201e-05  1.0233087710599818e-03  1.0216136788767931e-03  1.0186215262921541e-03  4.1896072139277218e-05  3.8700629787074750e-05  8.2856825236160894e-04  4.1507173680538553e-05  1.0266791755879725e-03  1.1270518681890055e-03  1.0296323395160172e-03  8.1463315289370759e-05  1.0669286600056040e-03  1.0179102714616538e-03  1.3015541222757363e-03  1.2925710954286821e-03  1.0303022046348747e-03  8.0337750800943983e-04  4.7214509553447822e-05  1.6126830153358541e-03  1.0365467220752552e-03  1.3027908008576489e-03  2.6693777742080739e-04  1.1374381543570453e-03  1.0311057184838319e-03  1.0331058710133538e-03  1.0375005642178261e-03  1.4336848363869941e-03  1.2017375553918068e-03  3.1224373715978159e-04  9.4199698218119701e-04  6.5286286065503830e-05  1.2443766793777038e-03  5.6720315948157352e-04  1.0602204227350251e-03  1.0186798533818901e-03  1.2261552209038714e-03  1.4500475453728045e-03  8.9400472679708787e-05  8.4105601955986877e-04  1.6970538214306117e-03  1.0465139488020168e-03  1.1139827355096785e-03  4.6894755426573253e-05  2.2605315632677616e-04  9.8621255254852363e-04  1.0886130422577006e-03  4.7837401872621948e-05  4.3910493640454574e-05  1.3482923324560987e-03  1.2219025121275279e-03  1.0799594319367480e-03  1.2840520023258062e-03  1.5814257251850860e-03  5.6833907065485327e-05  5.2023444774809525e-05  5.3367317152725563e-05  5.2642589008251517e-05  3.1708940839063094e-04  1.6979560973675597e-04  1.1084414729880317e-03  1.1760709593305085e-03  1.0238033417715644e-03  3.9889492778542957e-05  1.8770923163756586e-04  2.0098983665556339e-03  5.7301743333429531e-05  1.2153329136915113e-03  8.0729218952773154e-04  1.3861288341683123e-03  4.4275761276955529e-05  4.2759752787241060e-05  4.5621021695963489e-05  1.3399496380474103e-04  7.0408766018658774e-04  1.1917245808786116e-03  3.8129146368648755e-05  3.8710783059969332e-05  3.7057640743052699e-05  1.0160116717630053e-03  1.0174949439772229e-03  1.0315979639069575e-03  1.0774473449379179e-03  1.0317292166879457e-03  4.1287198618243409e-04  6.3684360110025846e-05  9.1708693337585665e-04  5.2133738705583903e-05  2.2497296127117219e-04  7.4057281980366213e-04  1.1736089132171638e-03  9.7250529084097259e-05  1.1086099927259607e-03  1.2023027802851125e-03  1.0418417691017341e-03  1.0533029652145369e-03  1.0431372532280340e-03  5.1014083509777039e-05  1.0164310546033973e-03  1.0160303459169973e-03  5.5788397661247662e-05  1.0199351500118287e-03  3.6397744936443420e-05  3.7496550406419919e-05  4.2096829503461367e-05  3.6478782936407139e-05  4.9158210202598003e-05  6.1084152143548031e-05  1.0329745464282187e-03  1.0296569709916459e-03  1.0257083858876649e-03  1.0217190310169765e-03  1.6280699049408778e-04  4.5028977526221812e-04  5.3220671157992434e-04  1.0276992186920512e-03  1.0054865828271640e-03  1.1258515914629879e-03  1.0269911935659798e-03  1.0273887604777662e-03  1.0229429173563385e-03  1.0226092950856864e-03  1.6449987660964292e-04  1.1268596034144593e-03  2.1739692695598413e-04  1.0475762462138682e-03  1.1261261584613295e-04  5.4172005435495989e-05  1.2867216937792938e-03  1.7935427156703060e-03  4.1725802068836360e-05  1.2245653260822857e-03  5.0820314065400393e-05  1.1853603184403085e-03  6.2513299166613631e-05  1.0177645658561636e-03  4.3750285420870681e-05  4.0464591443427739e-05  1.0197397151518119e-03  1.1073740976486510e-03  1.1746736908548438e-03  1.0383201533994766e-03  7.6377964748849822e-05  4.7140355321426036e-05  1.3165176571618056e-03  8.8350973371183151e-04  1.1477152722759092e-03  1.3222714752236485e-03  1.1433466137064099e-03  1.0198084812165292e-03  5.4425913555156262e-05  1.2481788654600259e-04  5.1566643984767036e-05  1.5531537843269092e-04  6.6246440686396752e-04  1.1425737823223018e-03  1.0243998840234608e-03  4.3182516001156427e-04  4.2722716982132581e-04  8.1682640417097218e-04  4.4161234407738412e-04  1.2896687917758566e-03  1.4816774933712282e-03  1.2499945450634813e-04  1.2353029687649391e-03  1.2004129146830685e-03  1.3949274111817594e-03  1.6775839361397983e-03  1.1598155663126342e-03  2.3121852088363104e-04  2.2088039117443910e-03  1.4269055856039286e-03  1.2437263069784818e-03  5.0704918173223414e-05  1.0216622102813524e-03  5.2678133109214462e-04  1.0386462529021145e-03  1.2422917544560972e-03  5.0745845893264149e-05  4.9392383410551427e-05  4.8110586234928757e-05  1.4362942232029558e-03  7.2626693072646252e-04  1.0191808597195544e-03  1.0174122622565482e-03  3.9955036873972970e-04  2.7604126596251615e-04  6.3114385480990206e-05  8.3946914357167833e-04  1.3157297425833738e-03  1.1943095470593151e-03  1.0416466501894693e-03  6.5685838169203081e-04  1.0253376908527423e-03  1.0272845637639739e-03  6.0119772406500425e-05  1.0728126495655043e-03  4.5318860662328016e-05  4.5074408248605578e-05  4.9877810893903072e-04  4.0416963283823701e-04  1.0214221315954113e-03  3.7637949364488443e-05  3.7715726292142097e-05  1.0186750070141819e-03  1.0203624254882936e-03  1.0204059981759660e-03  4.0379788411836902e-05  4.0634847179837727e-05  3.9464615268999594e-05  4.4076836935133118e-03  2.7764586597244880e-03  1.4547728750446501e-04  3.8477916783637874e-05  1.0170383545201531e-03  1.0315197410167769e-03  2.4061743830234691e-04  4.5488217920549704e-05  1.9914331643250687e-04  5.7440519049637322e-05  6.2702875076137498e-05  1.0222986549316120e-03  8.5585977423088952e-04  1.4485865263702414e-03  1.0227824086071714e-03  4.3068731952253048e-05  3.7652473998086622e-05  3.7445587757475500e-05  8.2174724279786000e-04  1.0413818778953776e-03  1.0277388908377896e-03  1.0239156796054802e-03  9.1339493428764293e-05  2.6993322248609913e-04  8.4743642718628398e-04  4.3983715435898081e-05  1.3854050160894311e-03  1.0648473240771963e-03  1.1035730070447804e-03  4.0075582297226311e-05  5.6568544715463454e-05  4.4105490370800083e-05  1.0834230433650566e-03  1.0343708004666968e-03  3.8068430640429616e-05  1.0414628504007819e-03  1.1260673205849610e-03  5.6506950302618599e-04  9.6011579479841739e-04  4.2306750460391493e-05  1.0269859357392296e-03  1.0291770425696950e-03  1.0305690300791723e-03  8.4688874420333612e-05  7.8025751454336147e-05  1.5407079445551252e-03  4.6461451885673298e-05  6.2139280827377692e-05  1.2318703030680736e-03  4.4624578824172402e-05  1.4834495583063430e-04  1.2670361976345826e-03  6.9863050312222032e-04  1.0173432403196745e-03  1.4046755071669701e-03  1.2358555785740111e-03  2.0070499587663379e-03  1.5917533186098174e-03  4.6503615801422799e-05  1.0267395563814858e-03  1.0322156355869680e-03  5.2587925156801106e-05  4.1105526667575064e-05  1.0431398277890168e-03  1.0169183329122779e-03  9.9120503290063078e-04  4.1602890337307170e-04  1.5666074281224678e-04  5.7493262039601694e-05  1.2181969608969468e-03  4.7921943454144470e-05  1.2745704129405410e-03  1.0284728512482447e-03  1.0459168325725986e-03  1.1194269243053915e-03  1.0287821186673500e-03  6.4527451684191577e-04  1.0731316594380358e-03  1.3228028424640617e-03  1.3311053410088021e-03  6.2209219221941853e-04  1.0752562625035618e-03  1.5570443894793414e-03  8.6039245226774092e-04  1.4701677995913104e-03  1.1705931084835810e-03  4.3426592513993524e-05  1.2859443698466898e-03  1.1546442391332094e-03  1.3105278711506949e-03  1.0722295037515590e-03  1.0378815601763192e-03  3.9804718081920633e-05  1.1646069163594338e-03  5.4712974767641530e-05  1.2759671212841513e-04  1.0210530076558242e-03  1.0589790372329435e-03  1.4747941059785835e-03  8.0395336463761681e-04  1.1086316243392952e-03  4.6509306300152151e-05  2.6445088249513166e-04  1.3970554914891496e-03  1.1212697656810919e-03  1.0345658339313796e-03  7.2441771333615882e-05  4.8288419253707241e-05  1.3734515802852839e-03  7.8672944885092283e-05  1.1186923664853368e-03  1.0440667374269216e-03  1.6351798143482681e-03  3.7806216208265006e-05  1.2642670061947396e-04  2.0575645171828978e-04  4.2723905562661567e-04  3.9844336287896462e-05  1.0270315808784869e-03  1.0307751023064856e-03  4.0534439054853283e-04  1.8453475237872976e-03  1.2310272528049519e-03  1.0161266621128288e-03  1.3823006587382228e-03  1.2551403883269707e-03  1.0032070753189680e-03  1.1756996204417250e-03  1.0675380822019046e-03  1.0527539847132810e-03  1.0258050743846502e-03  9.4170011252165460e-04  1.2297845626022003e-03  1.1527735175489565e-03  5.8193056649814400e-05  1.3979771647625724e-03  1.0176133717402947e-03  1.0187683263047018e-03  4.1746969195754051e-05  5.1443590616184257e-05  1.0244408160771461e-03  4.9389498019348204e-05  1.2286173831410588e-03  5.8174275609107547e-05  3.8829919096435207e-05  1.0255751139191245e-03  1.1196586665451699e-03  4.4291693725762538e-05  1.1228263706530000e-03  1.6291990754423854e-03  1.1850886407344561e-03  7.4251668458771535e-05  5.8504974293786255e-05  3.9487460259667642e-05  1.2853335635242364e-03  1.0334435447485434e-03  1.1146245324030258e-03  5.6070628170158264e-04  3.9658119841705650e-05  1.0179606990476178e-03  4.5286673336932697e-04  1.5323848265822542e-03  1.4281963795690312e-03  1.0388672243106835e-03  1.3350911337072571e-03  5.0428858759646265e-05  1.0323137611184426e-03  4.1094209968479523e-05  4.1495220570394585e-05  1.0371089454409262e-03  1.0218274698250334e-03  1.1869075732446365e-03  4.8028117466304107e-05  1.2282073793004750e-03  4.2829366631221652e-05  1.6906747476236049e-04  3.0466112207852948e-04  5.3173122298893269e-05  5.1045335964039517e-05  5.0447527498922811e-05  1.2835763988463156e-03  1.2037024141725824e-03  1.3666242824903765e-03  8.4476063704887200e-05  1.0159813516551490e-03  1.2391524297244386e-03  1.1431173296946506e-03  1.0186395472335803e-03  1.1341159444067919e-03  1.1061963718796183e-03  5.3288111432461143e-04  5.3991415895439370e-05  1.2965879352828608e-03  1.0206066563851221e-03  1.0730972886579065e-03  4.9360252820991032e-05  4.1168321797855094e-04  1.7790862770280887e-04  3.6366211484367111e-05  1.1790470294300101e-04  1.5248617373201002e-04  1.2605721498008566e-03  1.0232984565416577e-03  9.9218048550845078e-04  4.2368124228806507e-05  2.7036556178887340e-04  1.0691283819817712e-03  6.1556790742206636e-05  3.6368327342986736e-05  3.7209080057898932e-05  1.0205583811900959e-03  5.5432540901609961e-05  1.0243234852202233e-03  1.0248365201670736e-03  7.0844817322763371e-05  1.2326807983250527e-03  6.6753359857755806e-05  1.1266925265191712e-03  1.8400120369065946e-04  1.1499573220014167e-03  9.2387298951710265e-05  1.0246166297939144e-03  1.0225301155978256e-03  1.0167798636484223e-03  1.0170003541460678e-03  5.3320732193508445e-05  6.5343758621711851e-05  9.6506415137162787e-04  3.8529563734965064e-05  1.0203457292680392e-03  1.0349980825325017e-03  1.5743626655268555e-04  9.4096095199441946e-05  6.9531080300190204e-04  1.0217303853282953e-03  5.7177909707525399e-04  4.0811111756094206e-05  5.1841267348246996e-05  3.6391444676938519e-05  4.4101773186457733e-05  4.1948478835472391e-05  4.9908101378987112e-05  2.8737555549783364e-04  4.5296845939925073e-04  2.0946291698100282e-04  3.7168041916184452e-05  1.0458404248728957e-03  4.0699877018528151e-05  1.0446640608480764e-03  1.0691724142099814e-03  1.4315530436554645e-04  1.2027341737495278e-03  1.1606592921362916e-03  3.8040749236058837e-04  6.6714121640102340e-04  8.7664810024486574e-04  2.6813866085108356e-04  3.0267568189034088e-04  3.8547859197076030e-05  1.0197218364908821e-03  1.0770358936126451e-03  1.0068310571137603e-04  7.2117314077738083e-04  1.0237945790136829e-03  3.9417130975704090e-05  2.1076732121103480e-03  2.4570177921579674e-03  1.7356330640336817e-03  1.1315682473002854e-03  3.7636767578764441e-05  7.9786929028189757e-04  1.0356489785748840e-03  3.7111115816612334e-05  1.0178735182283928e-03  4.8027190168672834e-05  4.7214952967754627e-05  1.1567883696243790e-03  8.6599183238238490e-04  1.2424860772732068e-03  1.2354248327841003e-03  5.4384179770715834e-04  1.0925636481473636e-03  1.0378368763357814e-03  1.3197078034458589e-03  5.8346912533773243e-05  3.7124072577206911e-05  1.0482304471404042e-03  1.2806333804943352e-03  7.6297214306385793e-05  6.2688425618994632e-05  3.5353953599060969e-04  1.2810376023872389e-03  1.0546232927519750e-03  1.1101673320004799e-03  1.2499491571241268e-03  1.0367410911937016e-03  6.9715525746766544e-04  7.4978759745540730e-05  1.0693479028073666e-04  5.4052534444304178e-05  7.3521043510919979e-04  1.0303842533301636e-03  2.2926228665154204e-04  6.0035395338914854e-05  8.1330630093218712e-05  9.8536913803990052e-04  3.1654972347977035e-04  3.8739748538125082e-05  3.6758550434898618e-05  1.3774789658426540e-03  1.3261568332284348e-03  5.5169057047344265e-04  1.0304612385481449e-03  2.7672836438859408e-03  1.1007441500842474e-03  4.6864785347081187e-05  5.4484389221463066e-05  6.4616757501961537e-04  3.9108045062509529e-05  7.3553247533159505e-04  1.2043965125307747e-03  1.1709660774848634e-03  5.8171431134868543e-04  7.2728045926018117e-04  9.9032421103623159e-05  1.0624046724780614e-03  1.0333688395073300e-03  5.3613826479195218e-05  6.2135781586901591e-05  9.0411920210035695e-04  5.0211349339359724e-05  9.6213778283043801e-04  2.4671930665408270e-03  1.0205384630003859e-03  3.7035579894273090e-05  1.2800164315920029e-03  1.5461572810271937e-03  9.0945797329234799e-05  3.9133109853591535e-04  1.1117830354305434e-03  6.1330874771377308e-05  1.2138620279385571e-03  7.4781790031708484e-05  3.9880575791598778e-05  4.1701109156482389e-05  5.5355843012981207e-05  5.3841165585817303e-05  1.9004454377323386e-03  1.0261967827861138e-03  1.0237848539640714e-03  1.0256573396960826e-03  1.0667704988441028e-03  1.1587373415789235e-03  4.5500008038296369e-05  1.0718540845933136e-03  1.4665472585141774e-03  1.3050855479306786e-03  3.3015304328851662e-04  6.2231215548076113e-05  4.5505783652258942e-05  1.0205842200523233e-03  1.0314331311023466e-03  1.0562135825379565e-03  1.0836655852833963e-04  5.2314291237043990e-05  1.1670473650323319e-03  1.0166423737236856e-03  1.2231536435300438e-03  1.0166724646228534e-03  1.0160644629715247e-03  1.0358442702158566e-03  1.0267325858675377e-03  1.0163715400302333e-03  1.2398694440943485e-04  4.4607544176113250e-05  4.6517046445863887e-05  3.9060603682910229e-05  4.6974621857502471e-05  7.1159207000800955e-05  1.0339408716922354e-03  1.0322371601881929e-03  1.0306101196954850e-03  1.0233629223913329e-03  1.0374326073409397e-03  5.6342218249647972e-05  4.2986999856833638e-05  1.0227164173841857e-03  1.0159663082579208e-03  5.6359243152349763e-05  1.0184722537213728e-03  3.6878761044939465e-05  6.0324432829622404e-05  4.8346876843724041e-05  8.1298146116592647e-04  1.0171807963509621e-03  1.1682804143669993e-03  7.4483617697456025e-04  9.2892216265559884e-04  1.0389610923677681e-03  1.0285828210517755e-03  1.0626500698642195e-03  1.0365728162217099e-03  2.1123429980066612e-04  5.4143704385823147e-04  3.6600254781514166e-05  4.4708640977767594e-05  1.0658960353856475e-03  1.2002802045052113e-03  1.0171911523720082e-03  5.7169284593743321e-05  1.0335547506410935e-03  1.3332297987441451e-03  1.8375674832092439e-03  1.8167005409111909e-03  3.7373219906182284e-04  6.3378150221584550e-05  1.5706241246936955e-03  1.0485152941368261e-03  1.0219219450094096e-03  1.3123741798046547e-03  1.1587492445268985e-04  1.0320225109115798e-03  1.0287960746842796e-03  1.0277727311550822e-03  1.0269836288206227e-03  1.0305125715968854e-03  1.0894726120066732e-03  1.3333356761509709e-03  4.6019433320147174e-05  1.3119377355769639e-03  1.0582095805161244e-03  7.1835383781341524e-05  1.7331673961457734e-03  6.7310670093506119e-05  1.0280870537094722e-03  1.0537054909372132e-03  1.4159133658849599e-03  1.1120556844604209e-03  1.2673373064423028e-03  1.0348795579571283e-03  5.1039568018792101e-05  1.4948905414453586e-03  1.5118588936370893e-03  4.3047727401769484e-05  4.0581741289301064e-05  1.4541068383709698e-03  4.1136193384993973e-05  3.9506770940791076e-05  1.1820973917827560e-03  1.7932992455222863e-04  6.8918985522707470e-04  3.9609174231605617e-04  8.4091863724187988e-04  2.4227446469939892e-04  1.0311947017981008e-03  1.0333942818918200e-03  1.2231461859890632e-03  2.7095777963302161e-04  1.8565801778456682e-04  2.2611732673322974e-04  1.4295860127139920e-04  1.0208790078400436e-03  1.0296672463355578e-03  1.0978400681398170e-03  1.0257868653972143e-03  1.8367257055041896e-04  1.0239646262053528e-03  1.0233923295920532e-03  1.0807693837665750e-03  2.8221403819416195e-04  4.5309232280195813e-05  4.3921247988456405e-05  1.0213097393812014e-03  1.0888660009394605e-03  1.0277481301988001e-03  1.0285195166131382e-03  1.0260507804040391e-03  9.1903895287687772e-04  4.0182369165082261e-05  1.0340503409377022e-03  1.0448800966020163e-03  1.0195508346107771e-03  1.0199428467496847e-03  1.0189769420439179e-03  1.1552456644009514e-03  9.0749739141954625e-04  4.8886148976179631e-05  1.9105121312280903e-04  3.7274400645549183e-05  1.0660116061392000e-04  1.1580956348737996e-03  1.1065026697989998e-03  1.0328987283996676e-03  6.5179727234472671e-04  4.2265983967194503e-05  1.1916075310873448e-03  5.0347839426934014e-05  1.2039380529566030e-03  1.4794914574248908e-03  4.3344255603426530e-05  1.1107041185005944e-03  1.2335723589847643e-03  4.4528181482030190e-04  4.0886753843958829e-05  1.0166030638092563e-03  1.0329686303637419e-03  1.3565695136108218e-03  9.0069435681574780e-04  1.0437552218063293e-03  1.2914827368963920e-03  1.2692690763231461e-03  1.0291892716784877e-03  3.8385110922341095e-05  6.1741826973983803e-05  1.3059860657440798e-03  1.0504473338368652e-03  1.0468119218569208e-03  1.0186807970530387e-03  1.0168982434476160e-03  4.2544179936647435e-05  1.0164973804995836e-03  4.2796517212901829e-05  3.9034639060867538e-05  1.1949103949411186e-03  1.0207202330984660e-03  4.7396552272394244e-05  1.0688540922760576e-03  4.1223482246750903e-05  1.2559762833718139e-03  1.0184229687473494e-03  1.0193667596915220e-03  1.0202172805953748e-03  1.0181826855307666e-03  4.4603975853773