<?xml version="1.0"?>
<VTKFile type="UnstructuredGrid"  version="0.1"  >
<UnstructuredGrid>
<Piece  NumberOfPoints="6486" NumberOfCells="12696">
<Points>
<DataArray  type="Float64"  NumberOfComponents="3"  format="ascii">0 2.5 0  0 0 0  2.5 0 0  2.5 2.5 0  1.25 0 0  2.5 1.25 0  1.25 2.5 0  0 1.25 0  1.25 1.25 0  0 0.625 0  0.625 0 0  0.625 2.5 0  0 1.875 0  2.5 0.625 0  1.875 0 0  2.5 1.875 0  1.875 2.5 0  1.770833333333333 0.7291666666666666 0  0.7291666666666666 1.770833333333333 0  0.9375 0.625 0  1.875 1.5625 0  0.642361111111111 1.163194444444444 0  1.341594827586207 1.883979885057471 0  0.46875 0.46875 0  2.03125 2.03125 0  0.3626104797979798 1.513178661616162 0  1.381740196078431 0.4564950980392157 0  0.9375 2.172619047619047 0  2.172619047619047 0.9375 0  2.096354166666667 0.4036458333333332 0  0.4036458333333333 2.096354166666667 0  1.684027777777778 1.163194444444444 0  0.3418803418803419 0.8693910256410255 0  1.642742622813391 2.162164207604464 0  1.275619849389031 0.8465650753054845 0  0.9136284722222221 1.434461805555556 0  1.732437511238546 0.3406962303960658 0  0.9714402568595876 1.029779313093998 0  1.52281746031746 1.485615079365079 0  2.1875 1.71875 0  1.06819722569879 0.2997236128493951 0  2.136114211309524 1.303478422619048 0  0.3125 0 0  0 0.3125 0  2.5 2.1875 0  2.1875 2.5 0  0.3200021620376328 1.192323085056694 0  0.6738456129277992 0.8304377375553881 0  1.757891808928991 1.861952730357003 0  1.5625 0 0  0.9375 0 0  0.3125 2.5 0  2.1875 0 0  2.5 0.9375 0  0 0.9375 0  0 1.5625 0  0.9375 2.5 0  2.5 0.3125 0  0 2.1875 0  1.5625 2.5 0  2.5 1.5625 0  0.7448220909826522 0.3003573636608841 0  1.027298850574712 1.871151477832512 0  1.331260495098891 2.197262878816185 0  1.207917681892289 1.582765010956622 0  0.4339993447432606 1.801186844743261 0  0.6337298768939392 1.443093039772727 0  2.049851190476191 0.6826636904761904 0  0.6584821428571428 2.219122023809524 0  1.89575676467455 0.9798457973793544 0  1.437570562095628 1.059380588255917 0  1.502090052505845 0.6987070896496241 0  0.2040860661083546 1.705323965099331 0  0.2083333333333333 0.46875 0  0.5070952039991439 0.2211150679997147 0  0.6916302856529919 0.5813591430410241 0  2.265625 1.953125 0  2.2265625 2.2265625 0  1.886424081252096 2.243391360417365 0  1.40625 0.202164758520858 0  0.2269345238095238 0.2269345238095238 0  1.152730869673694 0.5225850378741401 0  1.885631899587912 1.312095130148776 0  1.614808884009367 0.9049784971014416 0  1.890095442220658 0.5126535558463003 0  2.323168682795699 0.46875 0  2.268811725689575 0.2304742875213018 0  0.6002389442105756 1.967426444210576 0  0.1768313172043011 2.03125 0  0.2311882743104251 2.269525712478698 0  2.03125 0.176831317204301 0  2.280262553344767 0.6954945504579233 0  1.979219539285994 1.809922269642997 0  2.336309523809524 1.09375 0  1.09375 2.336309523809524 0  0.9314042474388009 1.662973812215543 0  0.1634067999087722 1.40625 0  2.337090640094896 1.40625 0  1.141616997467638 2.069311773587991 0  0.46875 2.338939559681489 0  1.542440307908715 1.734944797244472 0  1.556713687786879 1.956977865354753 0  0.8264238995344066 1.975424467820646 0  1.466326331454725 1.275271369760862 0  1.655675324257095 0.5444159974393489 0  0.3385416666666666 0.6479255698005697 0  0 0.78125 0  0.5236073939200119 0.984090461540625 0  2.091665741047893 1.519793517904215 0  1.71875 2.5 0  0.5356538886262603 1.623137930505009 0  0 1.09375 0  0.1932884281517095 1.015625 0  0.8569313582417669 1.2198915584249 0  0.8876981284879677 0.8329884081524883 0  1.115618488474214 0.7219586973356271 0  1.186950366204949 1.043465130075318 0  2.057459118787237 1.110823087309335 0  1.830651283878689 2.049810069572418 0  1.689107969301489 1.367247437031697 0  0.4921048768039656 1.298643370653124 0  0.8213975694444444 2.336309523809524 0  2.03125 2.5 0  1.049729400480002 1.283723261332814 0  1.308101375801673 0.6489479469700392 0  2.5 2.34375 0  0.4968777175037714 0.7562964879736076 0  1.40625 2.5 0  1.501347663534097 2.307027627307738 0  1.602813712048603 0.1926218191360736 0  0.8393082906308107 0.463778306132633 0  1.682663349152719 1.598471865581041 0  0.7774174680851571 1.560004941327907 0  1.554204170364662 0.3898593897892066 0  1.842184459051087 0.186443880058197 0  1.358107417651776 1.696381759610015 0  1.18859291992392 1.77598670078022 0  0.1875331222687418 0.7609599743339348 0  1.339536743965101 1.422080365801479 0  0.7788179348750389 0.9955343414928611 0  0.9062978492805438 0.1919636509126373 0  1.256007360640958 0.3160320559396114 0  1.09375 0 0  1.174986727221844 0.1594990293443933 0  2.34375 1.796875 0  2.318026474511116 1.589177949022232 0  2.34375 2.5 0  1.672742954892153 2.332882724550692 0  0.2683637361947215 1.874801596909639 0  2.174770749820102 0.5581009131310781 0  1.443279522965991 0.8870068372898454 0  0.3385416666666667 0.3571428571428572 0  0.78125 0 0  2.060421048269335 2.314363248763811 0  1.088078737088509 0.8967352118723447 0  1.087825368444708 1.454931510884769 0  2.018308232129541 0.8548495425854904 0  1.943987311736842 0.3246298523011434 0  1.71875 0 0  1.85337849796276 1.144833312386208 0  2.3486328125 2.1044921875 0  1.407588788651747 2.042968789119587 0  2.336309523809524 0.865366648092144 0  2.34375 0 0  2.5 0.15625 0  0.15625 2.5 0  0 2.34375 0  0.1638044648294291 1.242263417405867 0  0.356216654757926 1.032569427322806 0  0.3188217956111817 1.355736727000647 0  0.5924956460852111 0.36112522004736 0  0.6594216488965849 0.1603472116132387 0  1.841804599497131 1.72214349266521 0  0.15625 0 0  0 0.15625 0  2.115898634821499 1.894570904464496 0  0.7821877980253907 0.7129993435924866 0  1.003820447087786 0.4516053462784233 0  0.477562948779147 1.138333049293613 0  0.719493678605015 1.305655360135975 0  0.9772457618587566 2.020350128938537 0  0.8764738248887107 1.826219722709673 0  1.254787875123819 2.339010653832026 0  2.343597354852534 1.249982759769001 0  0.78125 2.5 0  0.46875 2.5 0  2.5 1.40625 0  1.09375 2.5 0  2.5 0.78125 0  2.5 1.09375 0  2.03125 0 0  2.5 0.46875 0  1.40625 0 0  0.46875 0 0  0 0.46875 0  0 1.40625 0  0 1.71875 0  0 2.03125 0  2.5 1.71875 0  2.5 2.03125 0  2.005424054645407 1.653223486966518 0  0.1538730573856537 1.559850281736677 0  2.33984375 2.33984375 0  1.166539506212474 1.922878979538754 0  0.3914885633949916 1.65887232812171 0  0.5795503163042564 1.766243562569382 0  0.399533125920212 1.946786875081388 0  0.7866324979014098 2.127719094551316 0  0.3654683023546834 0.1495701132219454 0  0.1527388747131078 0.6116379440619215 0  2.013737577140188 1.391056634712135 0  1.17635437372994 2.213329084238133 0  1.737118141866284 1.010577140843115 0  2.200707118087222 1.164723314085963 0  1.697018908736685 1.993548551451517 0  0.5387621649009668 0.6070503962352419 0  2.032805785855952 0.5330427622570983 0  1.082699501358059 1.667818725183932 0  1.503819781540653 0.5468420196858188 0  2.015409142866072 2.175941657590429 0  1.752057611265444 0.869642097111018 0  0.612251684107783 2.356045720700959 0  1.902817102342857 0.6607642211999982 0  2.159616561739693 0.7867739969338844 0  0.5120038350106624 2.197302352398502 0  1.888200216011548 1.919501662489862 0  1.495909909726654 2.16028358757309 0  0.489139876703609 1.443203008943564 0  0.8819175670410521 0.3301172743913011 0  1.882591144370812 0.8155965192707721 0  1.133979796994841 1.172526771862882 0  2.206217447916667 2.084147135416667 0  2.20361328125 2.36279296875 0  1.395746985657004 1.556054166359645 0  1.704383111516207 1.734750450338683 0  0.9575737847222222 2.36274223823052 0  1.035150984253136 0.1302833343179028 0  1.383966125325753 0.7651479963479179 0  1.64003252158672 0.6824316405528895 0  2.22550785055421 1.487078576356817 0  1.760964431499756 1.48495222505201 0  1.276460980673788 2.004207003584658 0  0.1341477688427096 1.828777507920502 0  1.542261434180652 1.155296658359034 0  1.334627911613854 0.9696897472490321 0  1.30794231473696 1.119420615785191 0  0.7028260459857245 0.4438906910721139 0  1.625757433094055 1.84268057552138 0  0.9818707849053143 1.165603626132254 0  2.0086489901463 1.243134585689553 0  1.934584460420609 2.374094051915812 0  1.798434376789567 2.38671361912528 0  1.206314791201715 1.382064292497919 0  0.6333752893366955 0.7023738550008095 0  0.7796219811205605 1.42573253164258 0  1.564399711917382 1.026040828857629 0  0.3385416666666666 0.4889012896825397 0  0.1041666666666667 0.390625 0  0.989112246382566 1.543537365516289 0  2.025724425454636 0.9846960595520872 0  0.6602885475034063 2.086117390485779 0  1.607130551925032 1.267198646640915 0  0.1317864544877056 0.8896173683400176 0  1.755387840017567 2.230364320056445 0  1.301540702984401 0.1216289692748247 0  1.433170657577442 0.3331052752740999 0  1.500459610550388 0.113513924782439 0  0.6494291520606965 1.029586599619295 0  1.010146149868299 0.794897284196169 0  0.3700844198238017 2.235390157870766 0  0.3360891767780704 2.36656279435396 0  1.876856241037701 1.437150669863757 0  1.778674102957329 1.245979347269706 0  0.5472829890977179 0.1005517127039925 0  0.4669074189005698 0.3416784232954367 0  1.472765289289269 1.850899166481903 0  1.555853593327178 1.608452097912802 0  0.6708955559113426 1.646561631116984 0  0.8164699620322933 0.5924479455478063 0  0.3167738989468366 1.758696809749795 0  0.2788007305565096 1.605499483471246 0  0.7821720982350511 0.181524936294752 0  1.376812251214195 2.313340247908297 0  1.785652202614777 0.5962261755537186 0  1.761467296310972 0.4679567244718574 0  2.2265625 1.8359375 0  2.3828125 1.9140625 0  0.5279531607054191 2.071552361614785 0  2.397573269551114 0.234375 0  2.383578172599618 0.3589298466020009 0  0.1024267304488855 2.265625 0  0.1164218274003825 2.141070153397999 0  0.2696857594953064 2.135405441512016 0  2.164961300137334 0.1375322943529536 0  2.137757548369486 0.2724194778647587 0  2.238873711826398 0.3626419179496562 0  0.1001414910226386 0.234375 0  0.2176339285714286 0.3478422619047619 0  0.2503620791333544 0.1061694061057066 0  2.336445461915368 0.1250451055247424 0  0.2154004640409726 2.3918124
[...]
<PointData  Scalars="f_49-0"> 
<DataArray  type="Float64"  Name="f_49-0"  format="ascii">6.5677285029472551e-35  -8.9222611338973161e-04  2.1900727366673322e-35  3.6017129844374214e-45  -1.3208467290309631e-12  8.1441338293107383e-40  2.4813366312395464e-38  3.2293231784359639e-13  1.3315035646264478e-14  -3.6241884994639449e-05  1.5662316286722168e-05  -2.4561926750023454e-36  -4.1598123544170081e-24  -5.0357508513627892e-39  -3.8175578397957577e-24  2.2756938594008511e-40  3.1986696769048575e-40  1.6360954793291953e-22  2.0185392812839037e-22  3.0282249706455562e-07  6.1090174904946318e-26  1.7530121675221765e-11  5.0460929203039532e-25  1.3966908240863453e-03  3.8833356660810424e-33  2.1053786150008158e-17  1.4225103800976519e-14  7.6728622502456582e-31  1.2518454435587521e-31  2.9191501258199942e-29  -4.1802310840397905e-28  2.0185903821130685e-20  -4.8213151260217734e-08  4.6481336388947614e-32  3.3447544316668394e-12  1.6369335492497879e-15  -2.1455640861435195e-21  7.3016623386095725e-10  6.1662654595513760e-20  8.6069051358358307e-33  1.1830559357574636e-09  1.2280287965468494e-31  -2.3953997752162858e-05  -7.8406050074970196e-04  6.5979520927407972e-42  1.1832529232843534e-42  1.0206474845251694e-12  2.2202675519227605e-06  5.7073922535323703e-28  3.4790497098874119e-19  2.7227595142392416e-08  4.2482616057637687e-36  6.3173019144443726e-30  1.1737391476690230e-39  -8.0454212599942390e-09  -2.0399577729888074e-19  -2.1289878288233875e-37  2.4305978485345493e-38  1.6104206224973562e-29  5.9658388495527228e-39  -1.1487289396194818e-39  2.4538497406599341e-06  3.3599936476288823e-25  5.6112005805083012e-32  4.1057993361553872e-19  -7.2296696780478384e-23  1.2122737971429601e-16  -1.1606126049097715e-28  -6.5535024084895290e-31  1.1476589655181411e-25  2.7624500700140217e-15  3.3042155705257954e-17  -9.3728077635812045e-21  -1.0028691737491104e-04  1.3840328434476019e-04  8.8702488261359694e-05  7.2562699728440734e-36  1.8889457611869767e-38  2.0953676762151989e-35  8.9822216978148655e-16  4.1899603662815445e-03  5.7571608262972917e-11  6.1454259411615362e-25  5.1607564109499014e-19  -8.3177437241593442e-25  -1.6820494508836453e-34  -1.5652631705914217e-32  -7.7796698841506022e-27  4.3796582471908754e-27  7.4408618246971608e-32  -2.3979061337859667e-27  -5.5066149691076398e-34  8.3632294746700417e-30  -4.3364498808471394e-36  8.0828137046269799e-35  2.5934091825934297e-21  9.6557548492313953e-16  -2.4953372481098194e-35  1.0134594807718695e-29  -4.4541389084567262e-33  8.5825324177667402e-24  1.1148374241352260e-27  1.1687288719222837e-26  2.8911202695680057e-17  1.0358512909205958e-19  2.1931807672884371e-05  -1.2476966028645342e-06  6.7613373593544508e-09  3.9348002868486620e-30  3.5099037617451248e-39  1.8831816115287162e-19  9.1402457016162623e-12  -8.0833212020560895e-10  6.6096860938148216e-12  1.6942146154933009e-07  1.2471307564606140e-09  5.1121288822149021e-12  1.4762432936870371e-29  1.9774663001751722e-31  1.6426891928257539e-21  4.2694566893202929e-14  -9.4990148617094011e-34  3.1340445940812871e-41  1.0011649512531247e-13  1.5713978316245049e-13  1.2518974137636377e-43  1.1371612816340423e-05  6.8988556327618949e-39  1.9730704049576102e-34  -6.8686854598061980e-19  2.8410104776184596e-06  2.5637000977082408e-23  3.9626198625373754e-19  1.1252178157199617e-17  1.4450443085242338e-24  8.8117331760106856e-22  1.8345812649433024e-22  -1.0815712315476465e-06  1.9319867059997760e-17  2.1355909074664456e-08  7.6037624470232255e-08  1.9700254717914771e-12  2.4359088156038221e-10  4.5188939958291237e-11  2.0480321464326180e-36  2.3507731135254450e-35  6.4816424540863979e-44  1.4600303712099930e-35  -1.1838845493539431e-23  -2.9305645832911086e-31  2.4846441100608769e-15  2.6801140795079184e-03  1.0935747268084379e-06  2.6995225918790053e-38  6.1931224497774572e-10  1.9643933005620145e-16  5.0056127850465881e-28  3.5331781544610206e-26  1.3195183348825523e-21  1.1536044563955162e-24  1.0345856370008987e-38  6.9787241669067510e-29  -1.6897531416686268e-35  1.6520069493850545e-32  1.9990734348215867e-36  1.2906847030852651e-35  1.4421249433786720e-32  2.2738276915766006e-13  -2.0861165667302764e-10  8.3637566146520317e-15  2.5593649244680307e-04  8.1036204348596758e-06  5.7275401804495557e-27  -3.6881049848755800e-04  -1.5066352132630167e-03  6.4314669117850635e-33  5.2680535209658195e-06  8.2593696954133630e-09  6.6358480079914082e-13  8.2089917046137599e-14  1.1176560172296195e-27  9.0254784514935730e-24  4.9697470429776659e-35  -9.2818452805981235e-36  -7.4631957409282184e-37  -2.1065351549274658e-37  -6.2605380986889111e-40  1.4290244831823521e-38  8.6109872421671114e-39  -2.6122753692486119e-39  -3.1196621265037780e-27  -7.7453249035926444e-39  -3.3932379038557388e-16  4.2864096030354148e-05  -2.7494282580984973e-04  1.8318589521756763e-15  -5.0976569213390154e-21  3.7411558453394083e-27  2.6492888970265178e-40  7.4199267848470129e-41  4.5841264754083816e-29  -7.1116760114514198e-19  3.9053639050193295e-41  9.3093372513127905e-26  2.3248715323911978e-20  2.5915155077406662e-22  -2.8343311987608800e-25  2.4216452844379955e-30  3.8223166179789033e-04  -3.1823967766920139e-05  8.0856450397212152e-28  4.3124308461217156e-32  6.2744221913142844e-22  -1.8151150091937778e-32  3.7153624588621025e-29  2.7208753516014408e-04  -7.4885330199917049e-28  3.4626893681972759e-20  5.5457919676639737e-17  2.3624722161761928e-35  4.0588284472357119e-22  -1.0140777367401778e-33  9.0676989491358803e-25  8.2935873207821901e-32  -4.4362338637285271e-30  2.9348511273076515e-30  1.4971496505796017e-31  3.5535680359464302e-16  9.9212503579060800e-08  4.6843557013845537e-25  1.0748063789260874e-12  2.1192030467366199e-36  1.0169033654926373e-40  7.0994109306394111e-20  1.5791822207227702e-25  1.4417535496182420e-36  3.0040656570543032e-09  1.3851743587952533e-14  8.8525742138102774e-20  1.0249645183574079e-32  1.7096131563448559e-23  2.4432834825779221e-27  -1.3407403952212128e-22  1.3370950235609221e-17  1.4161681367334230e-13  3.3949205298458280e-14  6.2417231527046987e-05  3.6907940348424288e-26  1.6516056424722674e-11  1.0982313553851858e-27  3.6387191797099296e-38  1.3559471939597726e-37  8.1251583786041398e-16  3.7916876807045901e-05  4.9250936814051167e-16  1.8866257386063095e-17  7.9981250972991724e-04  -5.1809138754523845e-04  1.0703411577346301e-17  2.1026968168585300e-29  -9.1028987411081330e-29  2.2956493244522583e-19  -5.2115701002803172e-08  4.6204643312525502e-34  1.5703500393133015e-13  2.1755852911700270e-15  -7.6986803410760786e-17  4.0949488788857904e-09  1.2214302242629150e-08  -8.0841908574698946e-31  3.6240244933998890e-34  2.7848039494030233e-25  1.2019604968533560e-22  2.6958062557336100e-05  1.4960188309875763e-03  2.5849691081827004e-25  3.7857651566482875e-22  3.1651009729584129e-20  5.9007523430937436e-06  -9.7702554341399320e-22  -1.3913352300220864e-19  1.2188211724473308e-06  7.4838337619197774e-35  3.4130919132314994e-22  1.3463905600746376e-22  3.6067213292394343e-34  7.2695274798919177e-38  -1.3911337180780328e-27  6.2103390836009641e-36  -1.2210406777800946e-35  5.4816682777840356e-31  8.6837002911270866e-29  -4.3824904550628455e-29  -7.5427982259952725e-30  -1.0022498858722931e-29  -7.6774876190852153e-32  -5.6585065001400043e-04  7.7294435005569192e-04  8.6888825940245780e-04  2.4157872674558352e-33  1.6026465541184930e-33  6.9650348859220914e-32  5.3432089556897525e-03  -7.6685537927365240e-22  4.3181525697201579e-09  4.0924244801816004e-11  3.2716933745124444e-13  -9.3995550632953820e-26  1.8116243743941597e-21  2.1808510320685305e-10  1.5470306001584321e-25  -2.0075224977847841e-25  8.4453402919061531e-36  6.3106707462314315e-38  1.2532001773421616e-40  4.2886645885472182e-04  5.1534295284082170e-25  -8.2679807253210617e-25  1.4073217170686240e-17  1.4161754809218392e-32  6.6665260976018029e-19  -1.2000177534830681e-23  2.5858203028641962e-07  4.8727796785804424e-21  9.8188918762320387e-24  -4.5398826922696295e-31  3.1888524604269065e-07  -6.8318550690332637e-35  5.8380505337014888e-31  7.1644091845110310e-14  -1.2411893231671886e-37  -4.9069167165130331e-06  7.8898477166979311e-14  8.3482597477864119e-31  2.2751426196805570e-31  -4.7393272608047391e-27  1.8102576452105095e-36  1.3986931830222361e-16  2.2284787492023215e-14  -1.1673100169861547e-37  -3.7573839492840460e-34  1.2317986425297441e-09  4.7628278222162650e-20  3.2996328429983025e-20  1.7426263596561609e-33  1.8007775076386466e-23  1.0749861988631344e-37  7.3910947985475233e-30  5.4118889874827912e-16  -8.0463563775333596e-35  1.6941251718161174e-13  -1.0174224633179279e-06  4.2997932087079585e-04  -2.4131358452636031e-06  8.4605180896350329e-20  -1.1328274641198262e-19  2.1090913944133004e-12  -1.1308480500606582e-37  2.1292835072328061e-38  5.3408164423223517e-37  1.2423810604731728e-33  2.6429881285025708e-43  1.1823363780827363e-27  2.1948192565332302e-30  4.2177712765621107e-15  1.2955024037572035e-40  1.1591159653698042e-17  2.3076368855299419e-31  1.3956773576267468e-28  8.8788107460224044e-26  5.7380427895314785e-16  5.4561091430034551e-17  1.6922943079807275e-03  1.5429842651525611e-36  6.3298544779779591e-22  2.9493260013912261e-11  1.9276645890984086e-11  1.0081960940733335e-37  1.5960668660855363e-07  5.2240511526932492e-07  9.2783813523633234e-07  8.2253571908970417e-09  6.2400282345850703e-27  1.0182699995130091e-13  2.4659807562504040e-22  2.2794096834678952e-18  4.1950326669116741e-27  8.6686752727445189e-30  -7.3450897584776336e-36  3.4939761963380194e-18  8.1573900431398544e-13  3.3056768142177114e-05  4.0633482091565007e-33  -1.7341311544617654e-08  2.7200600902753056e-08  1.0286556722714952e-34  2.2916174867299526e-18  -1.6300672945586425e-19  3.7777887505129905e-35  5.7606249975903786e-15  -1.7068132255256929e-04  -1.6101216316211539e-09  5.6825806882247862e-27  -4.5905995637296787e-31  1.0422039806393004e-18  -3.8739237563857019e-30  3.1076209528874889e-36  2.1525841463194496e-18  1.9872871451263996e-06  6.9130942022647582e-34  4.5840071135931071e-11  9.4996710624312243e-12  1.3591497576861908e-10  9.0776371985748590e-32  5.3001498303195821e-21  5.0456652731351083e-18  1.9690701730023669e-23  8.6919346734405184e-05  1.5311514638673957e-10  -7.5490843871326678e-37  3.5908490401968620e-14  1.0590933264139547e-26  1.5976079923819271e-28  4.2218452300847037e-33  2.3692115322023236e-15  3.8801955365179080e-13  6.0493522277478723e-24  3.3099854229598754e-25  1.7232775311775529e-29  6.0588121184401245e-32  4.2421023723799325e-06  1.8638092750947856e-17  -1.0221043854223047e-35  -9.7394198669125415e-33  -2.1902697525213212e-28  1.7551005073221494e-12  2.4236919961178508e-27  -3.5839879753941737e-15  2.9206335730439026e-29  2.5028249432606815e-06  2.2255894388504024e-33  -5.0897080349837481e-21  3.7852337703659388e-10  -1.5817738073940695e-23  2.1847913189914895e-42  2.1584395921337151e-07  9.4730980383871116e-24  2.0955306812685465e-15  1.4696637588480636e-08  4.2471805381428520e-31  8.4315723385220810e-21  -3.6794304240971903e-11  1.2027374288116246e-32  5.2632164315478871e-38  2.1177826573449422e-33  -1.6519376990979774e-38  3.1550028854090449e-08  6.6596814160682127e-06  3.5548558685314679e-15  -6.8675784479440849e-07  2.7278793608558152e-23  1.7286111059283735e-18  1.0149975076159596e-13  5.8940380946005579e-29  -8.5235143829767346e-28  4.4554223481666097e-15  2.4313963887978124e-33  3.7040523927484142e-10  4.3220656674631780e-18  -9.7319238024046112e-06  -3.8796489897397985e-26  5.9969195020670011e-06  9.0802229761545945e-07  4.7259034460176005e-11  8.4437942706711249e-14  8.3496545968912545e-14  4.8741032094418759e-23  2.3086683246096796e-24  3.6837673363896755e-20  5.2851906538028034e-05  -5.2857201803270116e-38  5.2025897686239582e-37  8.2100998361701438e-39  -5.0539039709194729e-32  1.0419108827968866e-12  6.4587282990348351e-39  2.1744891861934728e-05  5.6373015457159721e-10  7.9700749123260419e-12  -3.2546613180052319e-29  8.8187495157068389e-18  1.7053139426624308e-16  1.3587578934181329e-30  7.3135506883195882e-17  2.9213215276198150e-40  6.5853085021359283e-35  3.4929530653407614e-25  8.9302861510065861e-34  -3.8152833459952728e-24  9.9924909757052409e-35  -2.3392182720292146e-27  7.4359743604903012e-19  7.2966479590649690e-13  3.6892543136732833e-05  -1.6155270141885288e-39  -2.7456571438159115e-36  3.0507566910769840e-36  3.1435391635301232e-08  -3.6253972956992717e-23  -3.9586981217938613e-22  1.4989558855684337e-23  2.3578019732797738e-39  4.6323230989846053e-09  5.4076400981189178e-30  4.3405543397573332e-08  -1.8920269779164550e-11  4.8820304672236595e-27  -1.5148868966801351e-22  -5.0903711983488451e-26  -2.2601669536212867e-35  -1.5319536293905977e-34  2.7129230956137735e-10  3.6645868100324000e-07  1.1810708079623522e-14  -2.4747062765421807e-34  -3.2907733011622001e-31  7.7655513023444352e-25  3.7561882681992030e-22  1.1922844373216300e-23  5.9367912105902466e-27  1.8809751341817315e-27  3.0777766121870532e-32  -2.9359037536342378e-29  5.3852862344150527e-12  1.6648349824502699e-39  1.0617465313253006e-29  6.9429739163360983e-29  2.2454417642813307e-27  1.7794118344233831e-38  5.0442052319052575e-36  1.6242241827001018e-38  1.0113084606955745e-35  7.7850345964589624e-31  2.0392243338593163e-29  -7.6085968182604946e-12  -3.7044153887210501e-12  1.8550215628104830e-19  8.2418013287563761e-34  2.0782122601408830e-37  9.1897623574181220e-21  2.6450505348694462e-40  5.6839215682582299e-38  1.3280791842623571e-13  5.2451548991500130e-15  -7.3735684532053074e-34  3.5332531340133462e-30  4.7847225978676971e-22  9.2580602201470849e-08  1.6180533565966078e-28  1.2177186934814866e-33  -1.1386291348096176e-31  3.3425542090064282e-03  9.9918317118249597e-04  2.2704307532764290e-03  3.8603076706430174e-24  6.2120225201351044e-35  4.9255754673133153e-24  -9.3494833839438298e-08  6.6266441092833955e-37  3.1550225610893967e-32  -3.9222796129250357e-17  6.6914646674038243e-21  1.4592902090602019e-30  3.9881033762022334e-42  3.8115612431047941e-21  1.1244225781958697e-35  2.0524768872251055e-39  -2.2136152356588414e-07  6.6743630073560171e-18  1.2887531006416629e-21  -1.0390746849784284e-33  -6.9444206851180105e-38  8.8989058699637186e-23  1.1397113957037872e-27  2.0058070106588358e-05  6.0839290936748982e-19  6.0148398933206928e-41  9.5682506674773012e-16  -1.5169590951687191e-09  2.5211113955280124e-15  5.7604539320662111e-25  1.0617361674491049e-13  4.0820561583846453e-13  3.5165713795135898e-10  2.5617181595984514e-33  8.3974392591289785e-28  2.4390835367755696e-03  7.5947857091843514e-15  4.5329527910106545e-05  1.4594210896617525e-05  5.1485159467835393e-06  7.9535639322536524e-04  3.6968732404693084e-04  -6.6463807216188112e-38  -4.9684416763685196e-39  3.4031072387399689e-17  2.7783997880691828e-16  3.2167020844424188e-14  5.1261534101389402e-16  -5.8757708549337143e-04  7.6961536081280271e-27  -1.1359118319513448e-34  4.9638798177481555e-09  2.7432519755935462e-34  2.9349817747478695e-33  2.6627714181947650e-37  7.6968906781563200e-27  6.1698056985030012e-37  1.2080584506529046e-09  3.0566835943437987e-31  6.6434156930759349e-16  4.5327366746352380e-34  2.9801480495723925e-35  -4.6236392543623028e-04  -1.5419919834294216e-03  3.0338119967823633e-33  -5.1391308842560169e-14  1.1441073920581822e-39  4.4322488681392018e-03  2.8950778088624160e-28  -6.3123121138677377e-37  2.7453794886081395e-05  1.0080249024975596e-05  1.2211915356429292e-20  2.9925674629005059e-29  9.5314508146071035e-20  6.4647426362069186e-10  3.8015033645086297e-40  9.5664935149008490e-06  3.0964336486974169e-31  6.8137695708107205e-28  1.0746957426836765e-08  -5.1777769356434794e-31  1.6087242148004257e-04  -1.4057611940242081e-20  1.4740916533102377e-30  2.9956870444015644e-28  1.7706955080865563e-24  2.5166473509827181e-33  1.8377461866885044e-21  2.4851462923304258e-21  9.9475691627797168e-13  5.7943449057963068e-24  6.0334351914420775e-27  -1.3231084450779814e-35  -8.4170491798379470e-38  9.7748960365252976e-29  2.9745173719489546e-13  1.8273743796185885e-37  1.6921410285904709e-37  2.6486574263988293e-12  1.1404963355970083e-43  -2.5074735828813050e-37  8.2654508437951677e-42  9.8336445110306509e-34  3.7322204620668583e-35  7.5338274130879433e-39  -1.1515953237865356e-19  -1.2550826473004337e-36  1.2217811379290258e-39  -4.2444996781247882e-23  4.8453318721906351e-20  -1.7557254986105851e-39  3.2889330446946270e-39  -5.0141774514716458e-39  -3.3342267503496358e-10  2.3866266426582288e-12  2.7289581027391437e-14  1.5030468136944830e-38  -9.7708461549259129e-06  1.8286037873190087e-07  -2.0484223790957239e-25  -6.8320863480937200e-26  1.0693780743808402e-35  -1.8427687411243010e-04  4.9828656493292313e-31  2.4368131940971414e-37  3.3095613064350737e-05  -1.1862647191857243e-17  -1.1808173995943778e-03  -5.2165535379987502e-04  9.9853909104754695e-40  9.9010200544254085e-43  3.4098201548240809e-44  9.1591058682172607e-45  3.0879559779532570e-17  2.4751852162671558e-39  -1.0137557735318438e-04  1.7127470747786904e-40  4.7216318237461881e-41  3.1976403622787306e-40  2.2551133829527190e-25  2.0851518662117847e-32  3.2827101679939995e-19  -1.4155915232706976e-35  1.2256373230329471e-16  1.0231370360447810e-36  2.6465485237533808e-04  6.0778308262880960e-05  7.2503332460492902e-04  2.1391575226232780e-34  4.1867908079618788e-05  1.1511984590627051e-07  -5.0825785603170044e-05  -2.1924594185987042e-26  1.6308695382308400e-12  1.6914221263353915e-09  3.2910310353765214e-29  2.6352879814467802e-17  -1.5733311937898821e-19  -1.5481512869840162e-19  1.7592837161168304e-14  -7.6295993127300033e-06  -8.4260499543179496e-05  -3.3191797770691669e-34  2.0436097480519008e-26  2.0404483815251760e-26  -5.4077958442056509e-32  8.1127933693988717e-06  -2.3166345774983000e-37  7.5301761196885074e-19  1.4599963127729765e-28  5.1433126364568301e-12  -3.9141068102334960e-09  1.1273319670113857e-18  4.0580418076606656e-27  8.3046332339811911e-16  2.1858286495826966e-09  9.1650621510772556e-11  1.2060834763188288e-26  9.1412871334937069e-35  1.3060088380092936e-07  1.7453257745543713e-31  -2.4709953057042196e-32  -3.3723855189085551e-17  2.0632064252506260e-20  1.4568259217209145e-06  2.3725509309692425e-22  1.6232712539368993e-04  4.8451462744153452e-34  2.0427313303977668e-20  1.2055474884203038e-21  4.6620748293045074e-31  6.0959617492745779e-26  1.6768177644260903e-26  2.9997970012505723e-29  2.4250811120201538e-28  -6.5761016874321462e-30  1.0044122353103841e-15  1.3066438449160343e-28  1.0986550494704791e-22  3.5435532942008004e-13  -9.2771490148263241e-24  -2.8854965778334396e-24  1.5681754238991712e-35  3.0265503509546418e-16  3.1511921244984701e-23  3.7388429394411110e-24  -2.7722729902325292e-27  1.9305968676795668e-27  4.3346768184579972e-19  2.3069851617547058e-19  5.0737352241613249e-22  6.1861952609235268e-11  -3.5901396867134322e-32  5.8701983923996619e-33  1.8726444429970567e-33  -1.5358384699693956e-30  -6.4084160464476375e-30  -2.0903173373714027e-31  2.2389866971928287e-35  3.4645785577023178e-20  5.3192711184846131e-16  2.8302816915736069e-33  -2.6896832088960190e-37  -2.8225434038668909e-31  2.7475794169645150e-21  8.8879377776466525e-17  5.4393914539444537e-13  4.4587239734367779e-20  -1.0574958512488251e-26  1.0968087530791043e-06  7.6751795111564420e-14  6.7534936235598018e-36  1.8967752211591137e-06  5.1572836023731376e-25  1.2329164270080578e-34  4.0944357754820677e-35  8.3499711672706865e-39  -3.7145648415048992e-30  1.4205251897445486e-34  3.0597023499474301e-16  1.0451264748049525e-20  7.8540077456434423e-16  5.1423963766053551e-14  6.1384749272969960e-29  1.2006068362162181e-30  1.2385877126469060e-23  -7.5283001504393609e-34  1.2797429563631628e-11  1.5431460700971805e-19  2.0954463919947357e-16  3.2751554318523182e-15  -5.7274618884426786e-32  -4.0064342939159819e-35  -1.9597174429996842e-26  1.0517693747714972e-35  1.8505686192151670e-26  4.5296404456181803e-32  2.3276533026802619e-39  -1.6780296547667339e-28  -3.4673215559