<?xml version="1.0"?>
<VTKFile type="UnstructuredGrid"  version="0.1"  >
<UnstructuredGrid>
<Piece  NumberOfPoints="6486" NumberOfCells="12696">
<Points>
<DataArray  type="Float64"  NumberOfComponents="3"  format="ascii">0 2.5 0  0 0 0  2.5 0 0  2.5 2.5 0  1.25 0 0  2.5 1.25 0  1.25 2.5 0  0 1.25 0  1.25 1.25 0  0 0.625 0  0.625 0 0  0.625 2.5 0  0 1.875 0  2.5 0.625 0  1.875 0 0  2.5 1.875 0  1.875 2.5 0  1.770833333333333 0.7291666666666666 0  0.7291666666666666 1.770833333333333 0  0.9375 0.625 0  1.875 1.5625 0  0.642361111111111 1.163194444444444 0  1.341594827586207 1.883979885057471 0  0.46875 0.46875 0  2.03125 2.03125 0  0.3626104797979798 1.513178661616162 0  1.381740196078431 0.4564950980392157 0  0.9375 2.172619047619047 0  2.172619047619047 0.9375 0  2.096354166666667 0.4036458333333332 0  0.4036458333333333 2.096354166666667 0  1.684027777777778 1.163194444444444 0  0.3418803418803419 0.8693910256410255 0  1.642742622813391 2.162164207604464 0  1.275619849389031 0.8465650753054845 0  0.9136284722222221 1.434461805555556 0  1.732437511238546 0.3406962303960658 0  0.9714402568595876 1.029779313093998 0  1.52281746031746 1.485615079365079 0  2.1875 1.71875 0  1.06819722569879 0.2997236128493951 0  2.136114211309524 1.303478422619048 0  0.3125 0 0  0 0.3125 0  2.5 2.1875 0  2.1875 2.5 0  0.3200021620376328 1.192323085056694 0  0.6738456129277992 0.8304377375553881 0  1.757891808928991 1.861952730357003 0  1.5625 0 0  0.9375 0 0  0.3125 2.5 0  2.1875 0 0  2.5 0.9375 0  0 0.9375 0  0 1.5625 0  0.9375 2.5 0  2.5 0.3125 0  0 2.1875 0  1.5625 2.5 0  2.5 1.5625 0  0.7448220909826522 0.3003573636608841 0  1.027298850574712 1.871151477832512 0  1.331260495098891 2.197262878816185 0  1.207917681892289 1.582765010956622 0  0.4339993447432606 1.801186844743261 0  0.6337298768939392 1.443093039772727 0  2.049851190476191 0.6826636904761904 0  0.6584821428571428 2.219122023809524 0  1.89575676467455 0.9798457973793544 0  1.437570562095628 1.059380588255917 0  1.502090052505845 0.6987070896496241 0  0.2040860661083546 1.705323965099331 0  0.2083333333333333 0.46875 0  0.5070952039991439 0.2211150679997147 0  0.6916302856529919 0.5813591430410241 0  2.265625 1.953125 0  2.2265625 2.2265625 0  1.886424081252096 2.243391360417365 0  1.40625 0.202164758520858 0  0.2269345238095238 0.2269345238095238 0  1.152730869673694 0.5225850378741401 0  1.885631899587912 1.312095130148776 0  1.614808884009367 0.9049784971014416 0  1.890095442220658 0.5126535558463003 0  2.323168682795699 0.46875 0  2.268811725689575 0.2304742875213018 0  0.6002389442105756 1.967426444210576 0  0.1768313172043011 2.03125 0  0.2311882743104251 2.269525712478698 0  2.03125 0.176831317204301 0  2.280262553344767 0.6954945504579233 0  1.979219539285994 1.809922269642997 0  2.336309523809524 1.09375 0  1.09375 2.336309523809524 0  0.9314042474388009 1.662973812215543 0  0.1634067999087722 1.40625 0  2.337090640094896 1.40625 0  1.141616997467638 2.069311773587991 0  0.46875 2.338939559681489 0  1.542440307908715 1.734944797244472 0  1.556713687786879 1.956977865354753 0  0.8264238995344066 1.975424467820646 0  1.466326331454725 1.275271369760862 0  1.655675324257095 0.5444159974393489 0  0.3385416666666666 0.6479255698005697 0  0 0.78125 0  0.5236073939200119 0.984090461540625 0  2.091665741047893 1.519793517904215 0  1.71875 2.5 0  0.5356538886262603 1.623137930505009 0  0 1.09375 0  0.1932884281517095 1.015625 0  0.8569313582417669 1.2198915584249 0  0.8876981284879677 0.8329884081524883 0  1.115618488474214 0.7219586973356271 0  1.186950366204949 1.043465130075318 0  2.057459118787237 1.110823087309335 0  1.830651283878689 2.049810069572418 0  1.689107969301489 1.367247437031697 0  0.4921048768039656 1.298643370653124 0  0.8213975694444444 2.336309523809524 0  2.03125 2.5 0  1.049729400480002 1.283723261332814 0  1.308101375801673 0.6489479469700392 0  2.5 2.34375 0  0.4968777175037714 0.7562964879736076 0  1.40625 2.5 0  1.501347663534097 2.307027627307738 0  1.602813712048603 0.1926218191360736 0  0.8393082906308107 0.463778306132633 0  1.682663349152719 1.598471865581041 0  0.7774174680851571 1.560004941327907 0  1.554204170364662 0.3898593897892066 0  1.842184459051087 0.186443880058197 0  1.358107417651776 1.696381759610015 0  1.18859291992392 1.77598670078022 0  0.1875331222687418 0.7609599743339348 0  1.339536743965101 1.422080365801479 0  0.7788179348750389 0.9955343414928611 0  0.9062978492805438 0.1919636509126373 0  1.256007360640958 0.3160320559396114 0  1.09375 0 0  1.174986727221844 0.1594990293443933 0  2.34375 1.796875 0  2.318026474511116 1.589177949022232 0  2.34375 2.5 0  1.672742954892153 2.332882724550692 0  0.2683637361947215 1.874801596909639 0  2.174770749820102 0.5581009131310781 0  1.443279522965991 0.8870068372898454 0  0.3385416666666667 0.3571428571428572 0  0.78125 0 0  2.060421048269335 2.314363248763811 0  1.088078737088509 0.8967352118723447 0  1.087825368444708 1.454931510884769 0  2.018308232129541 0.8548495425854904 0  1.943987311736842 0.3246298523011434 0  1.71875 0 0  1.85337849796276 1.144833312386208 0  2.3486328125 2.1044921875 0  1.407588788651747 2.042968789119587 0  2.336309523809524 0.865366648092144 0  2.34375 0 0  2.5 0.15625 0  0.15625 2.5 0  0 2.34375 0  0.1638044648294291 1.242263417405867 0  0.356216654757926 1.032569427322806 0  0.3188217956111817 1.355736727000647 0  0.5924956460852111 0.36112522004736 0  0.6594216488965849 0.1603472116132387 0  1.841804599497131 1.72214349266521 0  0.15625 0 0  0 0.15625 0  2.115898634821499 1.894570904464496 0  0.7821877980253907 0.7129993435924866 0  1.003820447087786 0.4516053462784233 0  0.477562948779147 1.138333049293613 0  0.719493678605015 1.305655360135975 0  0.9772457618587566 2.020350128938537 0  0.8764738248887107 1.826219722709673 0  1.254787875123819 2.339010653832026 0  2.343597354852534 1.249982759769001 0  0.78125 2.5 0  0.46875 2.5 0  2.5 1.40625 0  1.09375 2.5 0  2.5 0.78125 0  2.5 1.09375 0  2.03125 0 0  2.5 0.46875 0  1.40625 0 0  0.46875 0 0  0 0.46875 0  0 1.40625 0  0 1.71875 0  0 2.03125 0  2.5 1.71875 0  2.5 2.03125 0  2.005424054645407 1.653223486966518 0  0.1538730573856537 1.559850281736677 0  2.33984375 2.33984375 0  1.166539506212474 1.922878979538754 0  0.3914885633949916 1.65887232812171 0  0.5795503163042564 1.766243562569382 0  0.399533125920212 1.946786875081388 0  0.7866324979014098 2.127719094551316 0  0.3654683023546834 0.1495701132219454 0  0.1527388747131078 0.6116379440619215 0  2.013737577140188 1.391056634712135 0  1.17635437372994 2.213329084238133 0  1.737118141866284 1.010577140843115 0  2.200707118087222 1.164723314085963 0  1.697018908736685 1.993548551451517 0  0.5387621649009668 0.6070503962352419 0  2.032805785855952 0.5330427622570983 0  1.082699501358059 1.667818725183932 0  1.503819781540653 0.5468420196858188 0  2.015409142866072 2.175941657590429 0  1.752057611265444 0.869642097111018 0  0.612251684107783 2.356045720700959 0  1.902817102342857 0.6607642211999982 0  2.159616561739693 0.7867739969338844 0  0.5120038350106624 2.197302352398502 0  1.888200216011548 1.919501662489862 0  1.495909909726654 2.16028358757309 0  0.489139876703609 1.443203008943564 0  0.8819175670410521 0.3301172743913011 0  1.882591144370812 0.8155965192707721 0  1.133979796994841 1.172526771862882 0  2.206217447916667 2.084147135416667 0  2.20361328125 2.36279296875 0  1.395746985657004 1.556054166359645 0  1.704383111516207 1.734750450338683 0  0.9575737847222222 2.36274223823052 0  1.035150984253136 0.1302833343179028 0  1.383966125325753 0.7651479963479179 0  1.64003252158672 0.6824316405528895 0  2.22550785055421 1.487078576356817 0  1.760964431499756 1.48495222505201 0  1.276460980673788 2.004207003584658 0  0.1341477688427096 1.828777507920502 0  1.542261434180652 1.155296658359034 0  1.334627911613854 0.9696897472490321 0  1.30794231473696 1.119420615785191 0  0.7028260459857245 0.4438906910721139 0  1.625757433094055 1.84268057552138 0  0.9818707849053143 1.165603626132254 0  2.0086489901463 1.243134585689553 0  1.934584460420609 2.374094051915812 0  1.798434376789567 2.38671361912528 0  1.206314791201715 1.382064292497919 0  0.6333752893366955 0.7023738550008095 0  0.7796219811205605 1.42573253164258 0  1.564399711917382 1.026040828857629 0  0.3385416666666666 0.4889012896825397 0  0.1041666666666667 0.390625 0  0.989112246382566 1.543537365516289 0  2.025724425454636 0.9846960595520872 0  0.6602885475034063 2.086117390485779 0  1.607130551925032 1.267198646640915 0  0.1317864544877056 0.8896173683400176 0  1.755387840017567 2.230364320056445 0  1.301540702984401 0.1216289692748247 0  1.433170657577442 0.3331052752740999 0  1.500459610550388 0.113513924782439 0  0.6494291520606965 1.029586599619295 0  1.010146149868299 0.794897284196169 0  0.3700844198238017 2.235390157870766 0  0.3360891767780704 2.36656279435396 0  1.876856241037701 1.437150669863757 0  1.778674102957329 1.245979347269706 0  0.5472829890977179 0.1005517127039925 0  0.4669074189005698 0.3416784232954367 0  1.472765289289269 1.850899166481903 0  1.555853593327178 1.608452097912802 0  0.6708955559113426 1.646561631116984 0  0.8164699620322933 0.5924479455478063 0  0.3167738989468366 1.758696809749795 0  0.2788007305565096 1.605499483471246 0  0.7821720982350511 0.181524936294752 0  1.376812251214195 2.313340247908297 0  1.785652202614777 0.5962261755537186 0  1.761467296310972 0.4679567244718574 0  2.2265625 1.8359375 0  2.3828125 1.9140625 0  0.5279531607054191 2.071552361614785 0  2.397573269551114 0.234375 0  2.383578172599618 0.3589298466020009 0  0.1024267304488855 2.265625 0  0.1164218274003825 2.141070153397999 0  0.2696857594953064 2.135405441512016 0  2.164961300137334 0.1375322943529536 0  2.137757548369486 0.2724194778647587 0  2.238873711826398 0.3626419179496562 0  0.1001414910226386 0.234375 0  0.2176339285714286 0.3478422619047619 0  0.2503620791333544 0.1061694061057066 0  2.336445461915368 0.1250451055247424 0  0.2154004640409726 2.3918124
[...]
<PointData  Scalars="f_16-0"> 
<DataArray  type="Float64"  Name="f_16-0"  format="ascii">1.0119943538918269e-03  5.0124217613839610e-05  3.3303248031618874e-05  9.7756192367568287e-04  4.7452062835125414e-05  3.8411950620742363e-05  1.0241774145534348e-03  1.0275244021272628e-03  1.2163310828420145e-03  1.0332947392572437e-03  5.5336436518928677e-05  1.0122931792901119e-03  1.0196255185948484e-03  3.2457509876632077e-05  3.9927592448643291e-05  2.7471157881859908e-04  1.1886764980298834e-03  4.4427625036019632e-05  1.0329781344073801e-03  4.2484961902149220e-04  5.9809537670418378e-04  1.2465926114567081e-03  1.2449930356821942e-03  1.6680292862510581e-03  1.0496128725292974e-03  1.0251470152447839e-03  4.7877678451385346e-05  1.0223576337624566e-03  3.8128784812291474e-05  3.7081585072724921e-05  1.0170066002273225e-03  2.7020859153523293e-04  1.1576192373109896e-03  1.2334613557564273e-03  3.0558084778026744e-04  1.2733663489251591e-03  4.1371291613682326e-05  1.3970208764780003e-03  1.0921951430843267e-03  3.8804064883961325e-04  5.2203018661595274e-05  9.8024687974492027e-05  5.6167100283926101e-05  9.5739582319718229e-04  6.4121839531906843e-04  1.2008049587976508e-03  1.0361658843893863e-03  1.6753559860925975e-03  1.1945844468071558e-03  4.3457938778876584e-05  5.1515690906534293e-05  1.0119143766210783e-03  3.6340241483288465e-05  3.2520969699823003e-05  1.0309121696918451e-03  1.0237666940952183e-03  1.0130427637593496e-03  3.2832353143984934e-05  1.0157196748826983e-03  1.0787266792376615e-03  8.8746452960858390e-05  9.1691460508583930e-05  1.0813784055621540e-03  1.0860593535323684e-03  1.3571609922023037e-03  1.0210786600879469e-03  1.0675220146516358e-03  3.7745281007390797e-05  1.0157052695434494e-03  5.9694142018207071e-05  4.2514606205147176e-04  6.2624212353388511e-05  1.0220343605969512e-03  1.8445448480962493e-03  1.5855203597460899e-04  1.0403755168013062e-03  5.9649938869206119e-04  1.0175591767245479e-03  1.2474587952402407e-03  4.5500930630184136e-05  1.9833638275086893e-03  7.7055414126911515e-05  2.4305900908838627e-04  1.0504791278614186e-04  3.9515044590159531e-05  3.4317128119652098e-05  3.5194505281004085e-05  1.0194006191610592e-03  1.0177039102277729e-03  1.0146885369193019e-03  3.7988976073576751e-05  3.4793248938789176e-05  8.2466096954093415e-04  3.7599528482973140e-05  1.0227412752373383e-03  1.1231447575876152e-03  1.0257252735157239e-03  7.7555687791024830e-05  1.0630193265097209e-03  1.0139615402750561e-03  1.2976469626213398e-03  1.2886630619668542e-03  1.0263942301437315e-03  7.9947044362863658e-04  4.3307444655947863e-05  1.6087759514976934e-03  1.0326396582326966e-03  1.2988837369894029e-03  2.6303064266491248e-04  1.1334548871632755e-03  1.0271986314046781e-03  1.0291988070704734e-03  1.0335935003224811e-03  1.4297777721566684e-03  1.1978304915524136e-03  3.0833667332075764e-04  9.3808991831207051e-04  6.1379163743936795e-05  1.2404672154164276e-03  5.6329609337379028e-04  1.0563133579050222e-03  1.0147381530707768e-03  1.2221711365056928e-03  1.4461404806252061e-03  8.5493408826288649e-05  8.3712277314288667e-04  1.6931467575916736e-03  1.0425218645217442e-03  1.1100548706165407e-03  4.2987690861331725e-05  2.2214609248871387e-04  9.8230546538115673e-04  1.0847059624236515e-03  4.3930337622654234e-05  4.0003422159359821e-05  1.3443852078534810e-03  1.2179952967214911e-03  1.0760523680966370e-03  1.2801449351552488e-03  1.5775186613210691e-03  5.2926843227366906e-05  4.8116380925600909e-05  4.9460253313245120e-05  4.8735525166824992e-05  3.1318163392351941e-04  1.6588804553494167e-04  1.1044564715840363e-03  1.1721384836652581e-03  1.0198958277728993e-03  3.5982291051879058e-05  1.8380216772845198e-04  2.0059913027175957e-03  5.3394679495372333e-05  1.2114017042055693e-03  8.0338512568653702e-04  1.3822217650170231e-03  4.0368659676604212e-05  3.8852671219216208e-05  4.1713955812567682e-05  1.3008789175987116e-04  7.0017693343706001e-04  1.1878154648057848e-03  3.4221538500946406e-05  3.4803434582493966e-05  3.3149790846584398e-05  1.0119735684232171e-03  1.0135316377045014e-03  1.0276908996264679e-03  1.0735402810408813e-03  1.0278221514578947e-03  4.0896492234439617e-04  5.9777296271985766e-05  9.1317977932583820e-04  4.8226674867546573e-05  2.2106589743313486e-04  7.3666522716278235e-04  1.1697018493789480e-03  9.3343465245810821e-05  1.1047029287058984e-03  1.1983957153359768e-03  1.0379333646665246e-03  1.0493957050200162e-03  1.0392028465820444e-03  4.7106448798536514e-05  1.0124200413108124e-03  1.0119927311691577e-03  5.1879821602626146e-05  1.0159331389455791e-03  3.2489410876484522e-05  3.3588045158272613e-05  3.8189737263733960e-05  3.2570573370673790e-05  4.5251146253781923e-05  5.7177088305510682e-05  1.0290674825901803e-03  1.0257499048545258e-03  1.0218012392194710e-03  1.0178093608394592e-03  1.5889831914403670e-04  4.4637965367787621e-04  5.2829958816406929e-04  1.0237921410721333e-03  1.0015514875083486e-03  1.1219439642970433e-03  1.0230840964952051e-03  1.0234815825533108e-03  1.0190348932805054e-03  1.0186974002939144e-03  1.6059281277160559e-04  1.1229525395763211e-03  2.1348982962278657e-04  1.0436604118070449e-03  1.0870554957628072e-04  5.0264758616632192e-05  1.2828133275787283e-03  1.7896356518322318e-03  3.7818698857652950e-05  1.2206582126437473e-03  4.6913250012296364e-05  1.1814453229198065e-03  5.8606232458382893e-05  1.0138130550998875e-03  3.9843207474247659e-05  3.6557399861311531e-05  1.0158213373708484e-03  1.1034664266881447e-03  1.1707607768823292e-03  1.0344130858970378e-03  7.2470900910753567e-05  4.3233278598748940e-05  1.3126105931108244e-03  8.7959960907319087e-04  1.1437715412446735e-03  1.3183643968262282e-03  1.1394394481784133e-03  1.0158601973661769e-03  5.0518849716720183e-05  1.2091082267524561e-04  4.7659579140293033e-05  1.5140809617704076e-04  6.5855733546451168e-04  1.1386654867456081e-03  1.0204925436705628e-03  4.2791809592065483e-04  4.2332010596560189e-04  8.1291934025596343e-04  4.3770528023934338e-04  1.2857614505093708e-03  1.4777704293093992e-03  1.2109235702741074e-04  1.2313590549135555e-03  1.1964642161860714e-03  1.3910203450780406e-03  1.6736768723015515e-03  1.1559084986206044e-03  2.2731145678217196e-04  2.2048968479063485e-03  1.4229985217658907e-03  1.2398192294271579e-03  4.6797809323297770e-05  1.0177513605979164e-03  5.2287426651854291e-04  1.0347391890502169e-03  1.2383734989534420e-03  4.6838782027370854e-05  4.5485319466701976e-05  4.4203522122419522e-05  1.4323871593163418e-03  7.2235986688769910e-04  1.0152567306247005e-03  1.0134473671333411e-03  3.9564329463393129e-04  2.7213419901244925e-04  5.9207321642952619e-05  8.3556207973364079e-04  1.3118223716452678e-03  1.1904024573041144e-03  1.0377395533535839e-03  6.5295131785396464e-04  1.0214305107201910e-03  1.0233774797040278e-03  5.6212708568446182e-05  1.0688838791149710e-03  4.1411792384668189e-05  4.1167340752909512e-05  4.9487063740372584e-04  4.0026134527843774e-04  1.0175116261611963e-03  3.3730315923773589e-05  3.3808107856365128e-05  1.0147418575321594e-03  1.0164479459840567e-03  1.0164919721059676e-03  3.6472626030932788e-05  3.6727703990327915e-05  3.5557373746806838e-05  4.4037766296752745e-03  2.7725515958864498e-03  1.4157022366642768e-04  3.4570514353461986e-05  1.0130560812267866e-03  1.0276021297461835e-03  2.3671037446430955e-04  4.1581151827834614e-05  1.9523625259395603e-04  5.3533455209420956e-05  5.8795811225691563e-05  1.0183899708954705e-03  8.5195270406558936e-04  1.4446794623849978e-03  1.0188742717155202e-03  3.9161654711017273e-05  3.3744807422353215e-05  3.3537819130793740e-05  8.1782967206748115e-04  1.0374748140573381e-03  1.0238313765687684e-03  1.0200081098842996e-03  8.7432429318967203e-05  2.6602600670542570e-04  8.4352936162668116e-04  4.0076644228260582e-05  1.3814979522439508e-03  1.0609402101737859e-03  1.0996658160311700e-03  3.6168385350226599e-05  5.2661480877381713e-05  4.0198216846584367e-05  1.0795121100058370e-03  1.0304637364484778e-03  3.4160593343968039e-05  1.0375557865618791e-03  1.1221602559355515e-03  5.6116230391004549e-04  9.5620813702022194e-04  3.8399661127641452e-05  1.0230204749595497e-03  1.0252699748716106e-03  1.0266619653322147e-03  8.0780699915652612e-05  7.4118408720915061e-05  1.5368008806527001e-03  4.2554387013566749e-05  5.8232215856154464e-05  1.2279582582391051e-03  4.0717510553322374e-05  1.4443683102559256e-04  1.2631265729457926e-03  6.9472343913580840e-04  1.0133754358386629e-03  1.4007684422340716e-03  1.2319485147345766e-03  2.0031428949282793e-03  1.5878462547717508e-03  4.2596550736572182e-05  1.0228324586748180e-03  1.0283085715187951e-03  4.8679817584162209e-05  3.7197421517690039e-05  1.0391752874865424e-03  1.0129314416964994e-03  9.8724719046975836e-04  4.1212180966260562e-04  1.5275357911216761e-04  5.3586198148655468e-05  1.2142344380518498e-03  4.4014879270927276e-05  1.2706597651367666e-03  1.0245632792548320e-03  1.0420092550497051e-03  1.1155198596043590e-03  1.0248750496716686e-03  6.4136745300387833e-04  1.0692179739623256e-03  1.3188957378955687e-03  1.3271982770950417e-03  6.1818512837533840e-04  1.0712938474700892e-03  1.5531373256280293e-03  8.5648538842948631e-04  1.4662607357517469e-03  1.1666860446406411e-03  3.9519502075380103e-05  1.2820373045161770e-03  1.1507370289288769e-03  1.3066207896511764e-03  1.0683216150060447e-03  1.0339707617624354e-03  3.5897308566370458e-05  1.1606998402651011e-03  5.0805910919361458e-05  1.2368964829037696e-04  1.0171325219969179e-03  1.0550719733790994e-03  1.4708870421312266e-03  8.0004502147489672e-04  1.1047245577742392e-03  4.2602241410157431e-05  2.6054338611856699e-04  1.3931484252473342e-03  1.1173627018430483e-03  1.0306587700511056e-03  6.8534683318877520e-05  4.4381266889193241e-05  1.3695445064496878e-03  7.4765791380330916e-05  1.1147467813462657e-03  1.0401596610690829e-03  1.6312727505068546e-03  3.3898637363820467e-05  1.2251963677850143e-04  2.0184938787505891e-04  4.2333199178637003e-04  3.5937136909568838e-05  1.0231244553235922e-03  1.0268680276612164e-03  4.0143732202729430e-04  1.8414404599491215e-03  1.2271201888601208e-03  1.0120961227011794e-03  1.3783935941680872e-03  1.2512325059956786e-03  9.9929978513372359e-04  1.1717814753160558e-03  1.0636310164369223e-03  1.0488469204136671e-03  1.0218977035931546e-03  9.3779300210221806e-04  1.2258765844969360e-03  1.1488648846799785e-03  5.4285992811768634e-05  1.3940700937333803e-03  1.0136383522511708e-03  1.0148349948396267e-03  3.7839869458411309e-05  4.7536526764045490e-05  1.0205322601440205e-03  4.5482434088570105e-05  1.2247077788123404e-03  5.4267211771058616e-05  3.4922576210596939e-05  1.0216679544675505e-03  1.1157516026928118e-03  4.0384624005712043e-05  1.1188618589297109e-03  1.6252920115951348e-03  1.1811815229277199e-03  7.0344604562453501e-05  5.4597910455577947e-05  3.5580221882266285e-05  1.2814264452412373e-03  1.0295364808005267e-03  1.1107064339650953e-03  5.5679742739614987e-04  3.5750812584689933e-05  1.0139525665987285e-03  4.4895966953099355e-04  1.5284777627434416e-03  1.4242893137420456e-03  1.0349601604677362e-03  1.3311839483339217e-03  4.6521794429954489e-05  1.0284066966698535e-03  3.7187084732789302e-05  3.7588112464901195e-05  1.0332018798636195e-03  1.0179007886599377e-03  1.1830005093829276e-03  4.4121053115754660e-05  1.2243003154621694e-03  3.8922286612631385e-05  1.6516041092431242e-04  3.0075405824043589e-04  4.9266058458053325e-05  4.7138272091033828e-05  4.6540463621030874e-05  1.2796691774153725e-03  1.1997949913491002e-03  1.3627171916221874e-03  8.0568999866849857e-05  1.0119398303486823e-03  1.2352268077166103e-03  1.1391915633871641e-03  1.0147080457986834e-03  1.1302088802011389e-03  1.1022099463580191e-03  5.2897405048656510e-04  5.0084352056579551e-05  1.2926808710421616e-03  1.0166933717108528e-03  1.0691902160274941e-03  4.5453188836926449e-05  4.0777605552533530e-04  1.7400156367196017e-04  3.2457801092627175e-05  1.1399709637668441e-04  1.4857909573497201e-04  1.2566577229463009e-03  1.0193906618576479e-03  9.8827077982972800e-04  3.8461032979534322e-05  2.6645849744016541e-04  1.0652213180415283e-03  5.7649726904169293e-05  3.2460023678126711e-05  3.3301234472980730e-05  1.0165905531771093e-03  5.1525477063435677e-05  1.0204161380438493e-03  1.0209292744508660e-03  6.6937747888468942e-05  1.2287285865141102e-03  6.2846296019475033e-05  1.1227820327936427e-03  1.8009413985242562e-04  1.1460502580995420e-03  8.8480207275529185e-05  1.0207093279443523e-03  1.0186216251996901e-03  1.0127870551133052e-03  1.0130180926733988e-03  4.9413668353969549e-05  6.1436694783645560e-05  9.6115708730389916e-04  3.4622119582333180e-05  1.0164274558629493e-03  1.0310906710971233e-03  1.5352919978237075e-04  9.0189024793321394e-05  6.9140369376698184e-04  1.0178208906650734e-03  5.6787178219521188e-04  3.6903968586507849e-05  4.7934203501643859e-05  3.2483122022943670e-05  4.0194643488293583e-05  3.8041358748583944e-05  4.6001012841671020e-05  2.8346726003939494e-04  4.4906065706850614e-04  2.0555480705219649e-04  3.3260238073898544e-05  1.0419284847408773e-03  3.6792736131241802e-05  1.0407569968714217e-03  1.0652653502224664e-03  1.3924823973486970e-04  1.1988144761031388e-03  1.1567026661105195e-03  3.7650042718116424e-04  6.6322874158913057e-04  8.7273557082395302e-04  2.6423159699252906e-04  2.9876861800014486e-04  3.4640465252690927e-05  1.0158033273454429e-03  1.0731287383895819e-03  9.6776041873251553e-05  7.1726598433983146e-04  1.0198633640238440e-03  3.5509880762337149e-05  2.1037661482723102e-03  2.4531107283199288e-03  1.7317260001956435e-03  1.1276608740556735e-03  3.3729137648961695e-05  7.9396221019603186e-04  1.0317419147251670e-03  3.3203211797003479e-05  1.0139223401042800e-03  4.4120126032694221e-05  4.3307887250948951e-05  1.1528770658280770e-03  8.6206488043220344e-04  1.2385789969519478e-03  1.2314981696341656e-03  5.3993190546164534e-04  1.0886565843044756e-03  1.0339298038812073e-03  1.3158006722564163e-03  5.4439557081903033e-05  3.3216046477756731e-05  1.0443232645878013e-03  1.2767257633140845e-03  7.2390150468347990e-05  5.8781361353158589e-05  3.4963028946542805e-04  1.2771305373458720e-03  1.0507162288745826e-03  1.1062602662819793e-03  1.2460419718679633e-03  1.0328340266509855e-03  6.9324819360230209e-04  7.1071695906774668e-05  1.0302744778162614e-04  5.0145458517510542e-05  7.3130337127116246e-04  1.0264771881099738e-03  2.2535522281350238e-04  5.6128331500875567e-05  7.7423566255177615e-05  9.8146207420186232e-04  3.1264265964173286e-04  3.4831680509234635e-05  3.2850057796318972e-05  1.3735718972222079e-03  1.3222497633767290e-03  5.4778350660226603e-04  1.0265541715875172e-03  2.7633765800479026e-03  1.0968369337336996e-03  4.2957284187938870e-05  5.0577325383050717e-05  6.4225983264726576e-04  3.5200752170631290e-05  7.3162292298448617e-04  1.2004885164374180e-03  1.1670466305282246e-03  5.7780724750941157e-04  7.2337311325165190e-04  9.5125357162796552e-05  1.0584823458757167e-03  1.0294318903209850e-03  4.9706762641157889e-05  5.8228717748864255e-05  9.0021112787284192e-04  4.6304285456294964e-05  9.5821613992540277e-04  2.4632860027027897e-03  1.0166246489890182e-03  3.3127673732391298e-05  1.2761093677538852e-03  1.5422502171887091e-03  8.7038732102533194e-05  3.8742397937163584e-04  1.1078759443184127e-03  5.7423810932716074e-05  1.2098777216992063e-03  7.0874726193671155e-05  3.5973374826642234e-05  3.7794007717646120e-05  5.1448779174707007e-05  4.9933993381495827e-05  1.8965383738942768e-03  1.0222896653025125e-03  1.0198714053093110e-03  1.0217481244143537e-03  1.0628631675697951e-03  1.1548273400005542e-03  4.1592941982199610e-05  1.0679470078029077e-03  1.4626401940900009e-03  1.3011782951245761e-03  3.2624595736925366e-04  5.8323602127644190e-05  4.1597671580239257e-05  1.0166711109568284e-03  1.0275260668343078e-03  1.0522505311185127e-03  1.0445836246268519e-04  4.8407227394152261e-05  1.1630568836082603e-03  1.0126337984849637e-03  1.2191682053625740e-03  1.0126738880474465e-03  1.0120302347123955e-03  1.0318492347249364e-03  1.0228254876727939e-03  1.0123599468588630e-03  1.2007831470290519e-04  4.0700475867159784e-05  4.2609981631541980e-05  3.5152059859409372e-05  4.3066048000439585e-05  6.7250589885666296e-05  1.0300338078013498e-03  1.0283300961284267e-03  1.0267030549640926e-03  1.0193649251673399e-03  1.0335255435020884e-03  5.2435154411559570e-05  3.9079921643089934e-05  1.0188082486583107e-03  1.0119238654825123e-03  5.2452179314312434e-05  1.0145348374055606e-03  3.2970824612415140e-05  5.6417368991584797e-05  4.4439812785920110e-05  8.0907439732788914e-04  1.0132737325129245e-03  1.1642966079416315e-03  7.4091491127901510e-04  9.2496623528960534e-04  1.0349771474681862e-03  1.0246757507299709e-03  1.0586581210269386e-03  1.0326657523836518e-03  2.0732559943603541e-04  5.3752551451030878e-04  3.2692140346337862e-05  4.0801563498422312e-05  1.0619814447079038e-03  1.1963731094851461e-03  1.0132114138866298e-03  5.3262220615246123e-05  1.0295919229432913e-03  1.3293227349060973e-03  1.8336604193710171e-03  1.8127934770731441e-03  3.6982479426448268e-04  5.9471086383547207e-05  1.5667170608484220e-03  1.0446082302987244e-03  1.0180126829546865e-03  1.3084671152799308e-03  1.1196786061407295e-04  1.0281124577001936e-03  1.0248890060786204e-03  1.0238656543154424e-03  1.0230765393790784e-03  1.0266055067388083e-03  1.0855655481681367e-03  1.3294286123129179e-03  4.2112075062576285e-05  1.3080302589755179e-03  1.0543018758928310e-03  6.7928165020487066e-05  1.7292603323067111e-03  6.3402577939486945e-05  1.0241799801727286e-03  1.0497965375898706e-03  1.4120063018151240e-03  1.1081486206004085e-03  1.2634302364193692e-03  1.0309713944401579e-03  4.7132504064744800e-05  1.4909834775434798e-03  1.5079518296456603e-03  3.9140648656001235e-05  3.6674247496780735e-05  1.4501997745217641e-03  3.7229007971889410e-05  3.5599505039360046e-05  1.1781903217928545e-03  1.7542285932436650e-04  6.8528279138896874e-04  3.9218467587815749e-04  8.3701157340383898e-04  2.3836712043830263e-04  1.0272875940869287e-03  1.0294871416031892e-03  1.2192343605610708e-03  2.6705070092634573e-04  1.8175093255269912e-04  2.2221020985084008e-04  1.3905148755251749e-04  1.0169653412920511e-03  1.0257601803290335e-03  1.0939310819954313e-03  1.0218796590026095e-03  1.7976550669813194e-04  1.0200571597157480e-03  1.0194846255392981e-03  1.0768316831525023e-03  2.7830697423951629e-04  4.1402162045020070e-05  4.0014173876808900e-05  1.0173992134359503e-03  1.0849578649566823e-03  1.0238410506713147e-03  1.0246124307239804e-03  1.0221436409000076e-03  9.1513188902696795e-04  3.6275197616033212e-05  1.0301280793372258e-03  1.0409567365174002e-03  1.0156305009609622e-03  1.0160262596088203e-03  1.0150505627723710e-03  1.1513179397798199e-03  9.0359032353973180e-04  4.4979084989600580e-05  1.8714390523610647e-04  3.3366518945705037e-05  1.0269392826939484e-04  1.1541884868709498e-03  1.1025956020614530e-03  1.0289916642215349e-03  6.4789020711141431e-04  3.8358895652431460e-05  1.1877004672488400e-03  4.6440775547604770e-05  1.2000059697954181e-03  1.4755843935846495e-03  3.9437180182049194e-05  1.1067936420482835e-03  1.2296559567365750e-03  4.4137291014830030e-04  3.6979603546107643e-05  1.0125986657566859e-03  1.0290615630587849e-03  1.3526624210821777e-03  8.9678729262658563e-04  1.0398481570493411e-03  1.2875743897579053e-03  1.2653601826281492e-03  1.0252819858583709e-03  3.4477674381458563e-05  5.7834763132445117e-05  1.3020789717717795e-03  1.0465402661052887e-03  1.0429048561611414e-03  1.0147491497729370e-03  1.0129126919303092e-03  3.8637093286330933e-05  1.0124881225583393e-03  3.8889427789896029e-05  3.5127341724058194e-05  1.1909708057622661e-03  1.0168076383634652e-03  4.3489487957319079e-05  1.0649223262091953e-03  3.7316366153422808e-05  1.2520679456523697e-03  1.0144865874191138e-03  1.0154449013903997e-03  1.0163023682585410e-03  1.0142408754075999e-03  4.4213269469055