<?xml version="1.0"?>
<VTKFile type="UnstructuredGrid"  version="0.1"  >
<UnstructuredGrid>
<Piece  NumberOfPoints="6486" NumberOfCells="12696">
<Points>
<DataArray  type="Float64"  NumberOfComponents="3"  format="ascii">0 2.5 0  0 0 0  2.5 0 0  2.5 2.5 0  1.25 0 0  2.5 1.25 0  1.25 2.5 0  0 1.25 0  1.25 1.25 0  0 0.625 0  0.625 0 0  0.625 2.5 0  0 1.875 0  2.5 0.625 0  1.875 0 0  2.5 1.875 0  1.875 2.5 0  1.770833333333333 0.7291666666666666 0  0.7291666666666666 1.770833333333333 0  0.9375 0.625 0  1.875 1.5625 0  0.642361111111111 1.163194444444444 0  1.341594827586207 1.883979885057471 0  0.46875 0.46875 0  2.03125 2.03125 0  0.3626104797979798 1.513178661616162 0  1.381740196078431 0.4564950980392157 0  0.9375 2.172619047619047 0  2.172619047619047 0.9375 0  2.096354166666667 0.4036458333333332 0  0.4036458333333333 2.096354166666667 0  1.684027777777778 1.163194444444444 0  0.3418803418803419 0.8693910256410255 0  1.642742622813391 2.162164207604464 0  1.275619849389031 0.8465650753054845 0  0.9136284722222221 1.434461805555556 0  1.732437511238546 0.3406962303960658 0  0.9714402568595876 1.029779313093998 0  1.52281746031746 1.485615079365079 0  2.1875 1.71875 0  1.06819722569879 0.2997236128493951 0  2.136114211309524 1.303478422619048 0  0.3125 0 0  0 0.3125 0  2.5 2.1875 0  2.1875 2.5 0  0.3200021620376328 1.192323085056694 0  0.6738456129277992 0.8304377375553881 0  1.757891808928991 1.861952730357003 0  1.5625 0 0  0.9375 0 0  0.3125 2.5 0  2.1875 0 0  2.5 0.9375 0  0 0.9375 0  0 1.5625 0  0.9375 2.5 0  2.5 0.3125 0  0 2.1875 0  1.5625 2.5 0  2.5 1.5625 0  0.7448220909826522 0.3003573636608841 0  1.027298850574712 1.871151477832512 0  1.331260495098891 2.197262878816185 0  1.207917681892289 1.582765010956622 0  0.4339993447432606 1.801186844743261 0  0.6337298768939392 1.443093039772727 0  2.049851190476191 0.6826636904761904 0  0.6584821428571428 2.219122023809524 0  1.89575676467455 0.9798457973793544 0  1.437570562095628 1.059380588255917 0  1.502090052505845 0.6987070896496241 0  0.2040860661083546 1.705323965099331 0  0.2083333333333333 0.46875 0  0.5070952039991439 0.2211150679997147 0  0.6916302856529919 0.5813591430410241 0  2.265625 1.953125 0  2.2265625 2.2265625 0  1.886424081252096 2.243391360417365 0  1.40625 0.202164758520858 0  0.2269345238095238 0.2269345238095238 0  1.152730869673694 0.5225850378741401 0  1.885631899587912 1.312095130148776 0  1.614808884009367 0.9049784971014416 0  1.890095442220658 0.5126535558463003 0  2.323168682795699 0.46875 0  2.268811725689575 0.2304742875213018 0  0.6002389442105756 1.967426444210576 0  0.1768313172043011 2.03125 0  0.2311882743104251 2.269525712478698 0  2.03125 0.176831317204301 0  2.280262553344767 0.6954945504579233 0  1.979219539285994 1.809922269642997 0  2.336309523809524 1.09375 0  1.09375 2.336309523809524 0  0.9314042474388009 1.662973812215543 0  0.1634067999087722 1.40625 0  2.337090640094896 1.40625 0  1.141616997467638 2.069311773587991 0  0.46875 2.338939559681489 0  1.542440307908715 1.734944797244472 0  1.556713687786879 1.956977865354753 0  0.8264238995344066 1.975424467820646 0  1.466326331454725 1.275271369760862 0  1.655675324257095 0.5444159974393489 0  0.3385416666666666 0.6479255698005697 0  0 0.78125 0  0.5236073939200119 0.984090461540625 0  2.091665741047893 1.519793517904215 0  1.71875 2.5 0  0.5356538886262603 1.623137930505009 0  0 1.09375 0  0.1932884281517095 1.015625 0  0.8569313582417669 1.2198915584249 0  0.8876981284879677 0.8329884081524883 0  1.115618488474214 0.7219586973356271 0  1.186950366204949 1.043465130075318 0  2.057459118787237 1.110823087309335 0  1.830651283878689 2.049810069572418 0  1.689107969301489 1.367247437031697 0  0.4921048768039656 1.298643370653124 0  0.8213975694444444 2.336309523809524 0  2.03125 2.5 0  1.049729400480002 1.283723261332814 0  1.308101375801673 0.6489479469700392 0  2.5 2.34375 0  0.4968777175037714 0.7562964879736076 0  1.40625 2.5 0  1.501347663534097 2.307027627307738 0  1.602813712048603 0.1926218191360736 0  0.8393082906308107 0.463778306132633 0  1.682663349152719 1.598471865581041 0  0.7774174680851571 1.560004941327907 0  1.554204170364662 0.3898593897892066 0  1.842184459051087 0.186443880058197 0  1.358107417651776 1.696381759610015 0  1.18859291992392 1.77598670078022 0  0.1875331222687418 0.7609599743339348 0  1.339536743965101 1.422080365801479 0  0.7788179348750389 0.9955343414928611 0  0.9062978492805438 0.1919636509126373 0  1.256007360640958 0.3160320559396114 0  1.09375 0 0  1.174986727221844 0.1594990293443933 0  2.34375 1.796875 0  2.318026474511116 1.589177949022232 0  2.34375 2.5 0  1.672742954892153 2.332882724550692 0  0.2683637361947215 1.874801596909639 0  2.174770749820102 0.5581009131310781 0  1.443279522965991 0.8870068372898454 0  0.3385416666666667 0.3571428571428572 0  0.78125 0 0  2.060421048269335 2.314363248763811 0  1.088078737088509 0.8967352118723447 0  1.087825368444708 1.454931510884769 0  2.018308232129541 0.8548495425854904 0  1.943987311736842 0.3246298523011434 0  1.71875 0 0  1.85337849796276 1.144833312386208 0  2.3486328125 2.1044921875 0  1.407588788651747 2.042968789119587 0  2.336309523809524 0.865366648092144 0  2.34375 0 0  2.5 0.15625 0  0.15625 2.5 0  0 2.34375 0  0.1638044648294291 1.242263417405867 0  0.356216654757926 1.032569427322806 0  0.3188217956111817 1.355736727000647 0  0.5924956460852111 0.36112522004736 0  0.6594216488965849 0.1603472116132387 0  1.841804599497131 1.72214349266521 0  0.15625 0 0  0 0.15625 0  2.115898634821499 1.894570904464496 0  0.7821877980253907 0.7129993435924866 0  1.003820447087786 0.4516053462784233 0  0.477562948779147 1.138333049293613 0  0.719493678605015 1.305655360135975 0  0.9772457618587566 2.020350128938537 0  0.8764738248887107 1.826219722709673 0  1.254787875123819 2.339010653832026 0  2.343597354852534 1.249982759769001 0  0.78125 2.5 0  0.46875 2.5 0  2.5 1.40625 0  1.09375 2.5 0  2.5 0.78125 0  2.5 1.09375 0  2.03125 0 0  2.5 0.46875 0  1.40625 0 0  0.46875 0 0  0 0.46875 0  0 1.40625 0  0 1.71875 0  0 2.03125 0  2.5 1.71875 0  2.5 2.03125 0  2.005424054645407 1.653223486966518 0  0.1538730573856537 1.559850281736677 0  2.33984375 2.33984375 0  1.166539506212474 1.922878979538754 0  0.3914885633949916 1.65887232812171 0  0.5795503163042564 1.766243562569382 0  0.399533125920212 1.946786875081388 0  0.7866324979014098 2.127719094551316 0  0.3654683023546834 0.1495701132219454 0  0.1527388747131078 0.6116379440619215 0  2.013737577140188 1.391056634712135 0  1.17635437372994 2.213329084238133 0  1.737118141866284 1.010577140843115 0  2.200707118087222 1.164723314085963 0  1.697018908736685 1.993548551451517 0  0.5387621649009668 0.6070503962352419 0  2.032805785855952 0.5330427622570983 0  1.082699501358059 1.667818725183932 0  1.503819781540653 0.5468420196858188 0  2.015409142866072 2.175941657590429 0  1.752057611265444 0.869642097111018 0  0.612251684107783 2.356045720700959 0  1.902817102342857 0.6607642211999982 0  2.159616561739693 0.7867739969338844 0  0.5120038350106624 2.197302352398502 0  1.888200216011548 1.919501662489862 0  1.495909909726654 2.16028358757309 0  0.489139876703609 1.443203008943564 0  0.8819175670410521 0.3301172743913011 0  1.882591144370812 0.8155965192707721 0  1.133979796994841 1.172526771862882 0  2.206217447916667 2.084147135416667 0  2.20361328125 2.36279296875 0  1.395746985657004 1.556054166359645 0  1.704383111516207 1.734750450338683 0  0.9575737847222222 2.36274223823052 0  1.035150984253136 0.1302833343179028 0  1.383966125325753 0.7651479963479179 0  1.64003252158672 0.6824316405528895 0  2.22550785055421 1.487078576356817 0  1.760964431499756 1.48495222505201 0  1.276460980673788 2.004207003584658 0  0.1341477688427096 1.828777507920502 0  1.542261434180652 1.155296658359034 0  1.334627911613854 0.9696897472490321 0  1.30794231473696 1.119420615785191 0  0.7028260459857245 0.4438906910721139 0  1.625757433094055 1.84268057552138 0  0.9818707849053143 1.165603626132254 0  2.0086489901463 1.243134585689553 0  1.934584460420609 2.374094051915812 0  1.798434376789567 2.38671361912528 0  1.206314791201715 1.382064292497919 0  0.6333752893366955 0.7023738550008095 0  0.7796219811205605 1.42573253164258 0  1.564399711917382 1.026040828857629 0  0.3385416666666666 0.4889012896825397 0  0.1041666666666667 0.390625 0  0.989112246382566 1.543537365516289 0  2.025724425454636 0.9846960595520872 0  0.6602885475034063 2.086117390485779 0  1.607130551925032 1.267198646640915 0  0.1317864544877056 0.8896173683400176 0  1.755387840017567 2.230364320056445 0  1.301540702984401 0.1216289692748247 0  1.433170657577442 0.3331052752740999 0  1.500459610550388 0.113513924782439 0  0.6494291520606965 1.029586599619295 0  1.010146149868299 0.794897284196169 0  0.3700844198238017 2.235390157870766 0  0.3360891767780704 2.36656279435396 0  1.876856241037701 1.437150669863757 0  1.778674102957329 1.245979347269706 0  0.5472829890977179 0.1005517127039925 0  0.4669074189005698 0.3416784232954367 0  1.472765289289269 1.850899166481903 0  1.555853593327178 1.608452097912802 0  0.6708955559113426 1.646561631116984 0  0.8164699620322933 0.5924479455478063 0  0.3167738989468366 1.758696809749795 0  0.2788007305565096 1.605499483471246 0  0.7821720982350511 0.181524936294752 0  1.376812251214195 2.313340247908297 0  1.785652202614777 0.5962261755537186 0  1.761467296310972 0.4679567244718574 0  2.2265625 1.8359375 0  2.3828125 1.9140625 0  0.5279531607054191 2.071552361614785 0  2.397573269551114 0.234375 0  2.383578172599618 0.3589298466020009 0  0.1024267304488855 2.265625 0  0.1164218274003825 2.141070153397999 0  0.2696857594953064 2.135405441512016 0  2.164961300137334 0.1375322943529536 0  2.137757548369486 0.2724194778647587 0  2.238873711826398 0.3626419179496562 0  0.1001414910226386 0.234375 0  0.2176339285714286 0.3478422619047619 0  0.2503620791333544 0.1061694061057066 0  2.336445461915368 0.1250451055247424 0  0.2154004640409726 2.3918124
[...]
<PointData  Scalars="f_124-0"> 
<DataArray  type="Float64"  Name="f_124-0"  format="ascii">1.7427708520856741e-01  3.9621287376345787e-01  1.5606788905575231e-01  1.4578188968684089e-01  2.8484897409127996e-01  1.4839365832551457e-01  1.7742314293225456e-01  3.1433469736035746e-01  2.9002726277385737e-01  3.8429453053969220e-01  3.5777812806209947e-01  1.7664699639772227e-01  2.4242198174663601e-01  1.4836103114204557e-01  2.1635439533458314e-01  1.5165185726785083e-01  1.7223071817124833e-01  2.2772720701664373e-01  2.5586412694788063e-01  3.2786429767456882e-01  2.2154299118353621e-01  3.2180197789574205e-01  2.3952442881855701e-01  3.8513456011334579e-01  1.9724370928346940e-01  2.8509189864131668e-01  2.7273685685868304e-01  2.1158689155187391e-01  1.8208256325039501e-01  1.9043633654135816e-01  2.1853024653244529e-01  2.4187283484644562e-01  3.5597104450106953e-01  2.0677074395539197e-01  2.8868977294010961e-01  2.9165311575921110e-01  2.2940728648263417e-01  3.2131395603233953e-01  2.5830059444698183e-01  1.8527655731413240e-01  3.0861369084935725e-01  1.8872958005791882e-01  3.9170313849109833e-01  4.0928287205289121e-01  1.5258255587514982e-01  1.6240216073337918e-01  3.1878835500994263e-01  3.5229079435626393e-01  2.2451000586082923e-01  2.4848996776523280e-01  3.2188009823451980e-01  1.7362411985364110e-01  1.8370123518626930e-01  1.4709750668241203e-01  3.4551700831580839e-01  2.8011320687888586e-01  1.7659029677633684e-01  1.5178620523426209e-01  2.0698852677092544e-01  1.7542355929187442e-01  1.4977863931244573e-01  3.4659849709819401e-01  2.4292984832107214e-01  2.0658364664021253e-01  2.7082935894814775e-01  2.5365311088676107e-01  2.9133633526559882e-01  1.9466273085381031e-01  2.0508437621313363e-01  2.1382502116338128e-01  2.7211964405410893e-01  2.5938756705134192e-01  2.6428807215319050e-01  4.0259341237771407e-01  3.7429909123550126e-01  3.5886201957365516e-01  1.7554728993300500e-01  1.7404782275647701e-01  1.9201163900744611e-01  2.6698338315973752e-01  4.0693432468395518e-01  3.0026080791245074e-01  2.1876324200090905e-01  2.4837037769741813e-01  2.1209618748433001e-01  1.6528592905348347e-01  1.7327394489357981e-01  2.3456218784721328e-01  2.2494903037048378e-01  1.9773352515939996e-01  1.9870789643169065e-01  1.6927627655929300e-01  2.0754055413993341e-01  1.6310343376651359e-01  1.9293021973324348e-01  2.6563370539356074e-01  2.9758327155724257e-01  1.6536473594420401e-01  2.2164998260751209e-01  1.9123321601775378e-01  2.4537003419799655e-01  2.2728487545107171e-01  2.3405234979850226e-01  2.6805855479805085e-01  2.4118002916040954e-01  3.8111154642038164e-01  3.6284127945080152e-01  3.4185459729815609e-01  1.9555410220999173e-01  1.7477175160207514e-01  2.7222995713927878e-01  3.2966655692692104e-01  3.3726180861214144e-01  3.1341428197792215e-01  3.3450914228428286e-01  3.0682249251046118e-01  3.0018208356858317e-01  1.9546311332345326e-01  2.0850506139975572e-01  2.4254505745582111e-01  3.0687355881339368e-01  1.9267716369224261e-01  1.6896494086415528e-01  2.9922024256947694e-01  2.8232218843543844e-01  1.5028388238301474e-01  3.6627413877062615e-01  1.7644279111123445e-01  1.9376596137386470e-01  2.4419484712200587e-01  3.3763889118036161e-01  2.4031977626171738e-01  2.7711473420797961e-01  2.5161810393733730e-01  2.1704349264703057e-01  2.5700866196156069e-01  2.5219690174079007e-01  3.6773617289535931e-01  2.7569513694326353e-01  3.3531478353803656e-01  3.2619296447319535e-01  2.8653804601606891e-01  3.0313523228433259e-01  2.9618864787249993e-01  1.6692073674716765e-01  1.6911959267409699e-01  1.5459647482086492e-01  1.8969847335829731e-01  2.4483334431233852e-01  1.8036002465712922e-01  2.6868115572847512e-01  4.0193038648470647e-01  3.3907152561440518e-01  1.7956059093693888e-01  3.1203072561633260e-01  2.8528976273043183e-01  1.9939083914834232e-01  2.0656037849382244e-01  2.3261504272568154e-01  2.2058677345592517e-01  1.6628431137897295e-01  2.2155219195628478e-01  1.6241216866323652e-01  1.6971516576576406e-01  1.5467228410620182e-01  1.7410361433911437e-01  1.8751261372504557e-01  3.1387982432953948e-01  3.3725091470262220e-01  3.0178350063075415e-01  3.6648972202820257e-01  3.5495592160581418e-01  2.2230387282571598e-01  4.0218178227092743e-01  4.0268974288631348e-01  1.9207015753689430e-01  3.4661825034938681e-01  3.1682826425594718e-01  3.2565412500411361e-01  3.0603525179084845e-01  2.2858295101372886e-01  2.4916958976695150e-01  1.9290223685104679e-01  1.6392319823165274e-01  1.7652067884439210e-01  1.7426319574031790e-01  1.4932646591941884e-01  1.7703467411827942e-01  1.4845154128931964e-01  1.4793238585303611e-01  2.0053548416445355e-01  1.4940632263733164e-01  2.6481316461543036e-01  3.7748228251110594e-01  4.0228195362103281e-01  2.9816914452382465e-01  2.6222218560383226e-01  2.2590932490890750e-01  1.5106286166500907e-01  1.5217124561347428e-01  2.0572746792656416e-01  2.8027364845227865e-01  1.6124511118958490e-01  2.3688303471851843e-01  2.7030115287255052e-01  2.5662567560630961e-01  2.3674689899356940e-01  2.1675389071737802e-01  3.9044847975636959e-01  3.8589772849163539e-01  2.0439057843072203e-01  2.0698502782242020e-01  2.3364608276069324e-01  1.7955301098600726e-01  2.1977923144047032e-01  3.7392708207905068e-01  1.9697648558660999e-01  2.6466008036945993e-01  2.5816116995441057e-01  1.9037463549913020e-01  2.3127172127030232e-01  1.8960176525485301e-01  2.1155059409101715e-01  1.8268978675605738e-01  2.0762419171774538e-01  2.1236217215207992e-01  2.0864742991190405e-01  2.9168849544966108e-01  3.2955359374226539e-01  2.1340889400910412e-01  3.0195465016650258e-01  1.7996842190925161e-01  1.6829446714774488e-01  2.6434983018189445e-01  2.3357257135240372e-01  1.8962979396556712e-01  3.1220645937761532e-01  2.7494891724969306e-01  2.4232439110487969e-01  1.8008076908700968e-01  2.3483004135072166e-01  2.2770428375073415e-01  2.5030823654899476e-01  2.5934220687979487e-01  2.8329069461023981e-01  2.8620322534127890e-01  3.5455353744263290e-01  2.3402846444864714e-01  3.1192365230743618e-01  2.0383722673880719e-01  1.8022502848011890e-01  1.8203263344862178e-01  2.8595298825506960e-01  3.6231086408008295e-01  2.9257210640000997e-01  2.5629928826104759e-01  3.9559755369910954e-01  4.1055855485240694e-01  2.7867788217438294e-01  1.9796085894853949e-01  2.2042992262825087e-01  2.5230280316189613e-01  3.5153215785545039e-01  1.9791401357518840e-01  2.7923058413548568e-01  2.6562936281469407e-01  2.5527323139015723e-01  3.3533270601465459e-01  3.2022822322681493e-01  2.0280267263950399e-01  1.8675967099966892e-01  2.2068203878603118e-01  2.3158006594744532e-01  3.6780080716919628e-01  3.8454987241487387e-01  2.3969233477392374e-01  2.5041429234931661e-01  2.6838464291236330e-01  3.4250788112883834e-01  2.5850114691796922e-01  2.7591139791795560e-01  3.4074829015376912e-01  1.9420917393410148e-01  2.2563587681842781e-01  2.2696591532585317e-01  1.8119119209531978e-01  1.6248834313360405e-01  2.2229421168825877e-01  1.5995231089218678e-01  1.6065984954710374e-01  1.9822119945990632e-01  2.1356380787214224e-01  2.1395560517187692e-01  1.8490614886245640e-01  1.8722721686366142e-01  1.7657487385522877e-01  4.0589543215172291e-01  4.1082226601004174e-01  4.0328638604421269e-01  1.6759597041080057e-01  1.8337920644153949e-01  2.0622364218945385e-01  4.0247277308603063e-01  2.3139780006489635e-01  3.1133210124332955e-01  2.9849767820925333e-01  2.8450260732245469e-01  2.3116328141925258e-01  2.4703730575418364e-01  3.2370095864929299e-01  2.3558790496257320e-01  2.0938229963431002e-01  1.6005513893043560e-01  1.5783609360752501e-01  1.6091263449705695e-01  3.6985842702507915e-01  2.4202038966464481e-01  2.4291043131006357e-01  2.5587999890803725e-01  1.8593844445859473e-01  2.5933045881106548e-01  2.1762828155630701e-01  3.5455190716621049e-01  2.6409085526541781e-01  2.5397564685546931e-01  1.8152989155135962e-01  3.3171367344043451e-01  1.7717787784590755e-01  2.1500967189306291e-01  3.2415209131803141e-01  1.5760207350746161e-01  3.7398745077883910e-01  3.0976466634070793e-01  1.9777023074270395e-01  2.0346215936821160e-01  2.0238682161969554e-01  1.8400442718230309e-01  2.9152981738104811e-01  3.0640135878256852e-01  1.5557349619643293e-01  1.7500770696604409e-01  3.2556268485804840e-01  2.4026485293415617e-01  2.4112511385435056e-01  1.9942268529792753e-01  2.2354463196617175e-01  1.5772646712324156e-01  2.1669723325367696e-01  2.7464520910349927e-01  1.8493124597424979e-01  3.0294027680312013e-01  3.6899349447650326e-01  3.8468677153661773e-01  3.8988581246421211e-01  2.3965622680179427e-01  2.7160678721066006e-01  3.2123266817558160e-01  1.5533878538233103e-01  1.5434668661025833e-01  1.8293707382396732e-01  1.8229209628693163e-01  1.5220645989377601e-01  2.0919520968870367e-01  1.9033986306675035e-01  2.7155634173475424e-01  1.6985437136061446e-01  2.5338229793319805e-01  2.0971031496038672e-01  2.2324101194043802e-01  2.3871434084953447e-01  2.7978748856582458e-01  2.9019050904885479e-01  3.9230564066064705e-01  1.8387350904324509e-01  2.5476360226335865e-01  3.1100813719659287e-01  2.9920011747793085e-01  1.8172351957456373e-01  3.4629534828786268e-01  3.3440396754523294e-01  3.4420553683546290e-01  3.2444888513836706e-01  2.0371374430087083e-01  3.0249514659293347e-01  2.5284835967506220e-01  2.7471976677900067e-01  2.3282863174357493e-01  2.1750340932030696e-01  1.6970144827415148e-01  2.8035075731200454e-01  2.8645723501168546e-01  3.6143860412776657e-01  2.0471283737280777e-01  3.5023252565531315e-01  3.3295170516110151e-01  1.8542935104192398e-01  2.6779505410358062e-01  2.4060635337372394e-01  1.7231358736059113e-01  2.9399131376909321e-01  3.9828931852163296e-01  3.3991002436720902e-01  2.0716825463332753e-01  1.8876044416634374e-01  2.7205713650113411e-01  1.9040715030071154e-01  1.8558076152289979e-01  2.7883704102028894e-01  3.5691302039249290e-01  1.6148344224582453e-01  2.9618334625550219e-01  2.9196280534141361e-01  3.0184357172449355e-01  1.8001944232022310e-01  2.6370166253499611e-01  2.8050130031970372e-01  2.2947775489651986e-01  3.7601625658832055e-01  3.3025172560655325e-01  1.7510207266072891e-01  2.9471897556251475e-01  2.3182867019531109e-01  2.1699563728392210e-01  2.0044249278496087e-01  2.9955355339921391e-01  3.1507672529641378e-01  2.4686828900164201e-01  2.3087478619914792e-01  2.1707088363052240e-01  2.0551103108310970e-01  3.4740869066442998e-01  2.7952514613187351e-01  1.8304775678026580e-01  1.9648055793833730e-01  1.9734911222739310e-01  2.8504941359871322e-01  2.3026754963879945e-01  2.6691224681746656e-01  2.1843455266806461e-01  3.4430154965407822e-01  1.7072961639810930e-01  2.6100538624649278e-01  3.1416431550273238e-01  2.2049998436201926e-01  1.6043290120036074e-01  3.4403133238871531e-01  2.4238547344523409e-01  2.7047734399588502e-01  3.1950526944771956e-01  1.7678410754681378e-01  2.6229965103830155e-01  3.2938587615789372e-01  2.0173696266704030e-01  1.6613729326134355e-01  1.7415164530778632e-01  1.7632067119085823e-01  3.1972711353224681e-01  3.7014836757443903e-01  2.9119696497930891e-01  3.6186135077171372e-01  2.4861004126148234e-01  2.4970657529890630e-01  3.1030538073356806e-01  1.9140910784893297e-01  1.9505928058943997e-01  2.9948514292111322e-01  1.9959021313411018e-01  3.4538155359080874e-01  2.4949371287464250e-01  3.7983484352707803e-01  2.0720263196534508e-01  3.4391137887384698e-01  3.3172369931365808e-01  2.9733781198856529e-01  2.7663155493965880e-01  2.7569380264694798e-01  2.5029777678220755e-01  2.4231962483549976e-01  2.6504968359378089e-01  3.7795641850162381e-01  1.7383076213557025e-01  1.8576197501408945e-01  1.7622063011051498e-01  1.9767386368290213e-01  3.1843823752870903e-01  1.7506391182268843e-01  3.4849545148364358e-01  3.0612902846802120e-01  3.1610519381008023e-01  2.1466824474752108e-01  2.8346999356455949e-01  2.6206196601391030e-01  1.9508126978003590e-01  2.5937201642932639e-01  1.4768549226546618e-01  1.6710045711428595e-01  2.1439788307796739e-01  1.9971125259145364e-01  2.4028117846556291e-01  1.8872955662410887e-01  2.0198215755344751e-01  2.5036662836219009e-01  2.9633551356291465e-01  3.8332059032362525e-01  1.4839807985761219e-01  1.5604605755136619e-01  1.8415688633173874e-01  3.2138372761438000e-01  2.4925525796165643e-01  2.5424480991698739e-01  2.2441698782812441e-01  1.7537326382322235e-01  3.1660338779765496e-01  2.1589938815706861e-01  3.1962706805674396e-01  3.3597139586262575e-01  2.0574835123853227e-01  2.5228425496136042e-01  2.3224711988244551e-01  1.8103011081598011e-01  1.8298325757129838e-01  3.0265032931470620e-01  3.3574443947208998e-01  2.8413037862319662e-01  1.6707520981247992e-01  2.0736881004117488e-01  2.4343469430666045e-01  2.3177877215814355e-01  2.2295563964269272e-01  2.1755416289834381e-01  2.2601246941250822e-01  1.9097637914426344e-01  1.8847545557852935e-01  2.8921587491759004e-01  1.4854187173205322e-01  1.9221493476783813e-01  1.9358204602311613e-01  2.0561979594669691e-01  1.5812631230163010e-01  1.7154257608331516e-01  1.5888990176701073e-01  1.5567672730439003e-01  2.1364586048806442e-01  1.8777256659507921e-01  3.2811039828050664e-01  3.2782338131167693e-01  2.4522315295094479e-01  1.9813538408254686e-01  1.8085574796740925e-01  2.4208834028478299e-01  1.5863502891592285e-01  1.7264588287146596e-01  2.7967501611444806e-01  2.7205493266627362e-01  1.6823231059786120e-01  2.0773550339669661e-01  2.5755778771121923e-01  3.2622733197220194e-01  2.1089463212446521e-01  1.9666740606939695e-01  1.7614401545710157e-01  4.0872448913749920e-01  4.0437023980912540e-01  3.9300591300834242e-01  2.4394778210764639e-01  1.5994152500694073e-01  2.3386494216859596e-01  3.5334630686654267e-01  1.5509136122696465e-01  1.9094481420092865e-01  2.5448583993163515e-01  2.3517070581138669e-01  2.1296407009609758e-01  1.5567778161468715e-01  2.5774668228374009e-01  1.9039347064413431e-01  1.5913521394495111e-01  3.6073252993665877e-01  2.8281756558960536e-01  2.5858740317181522e-01  1.7357126098725500e-01  1.5360580168480914e-01  2.5470195502676035e-01  2.2669674092968595e-01  3.6470673514691754e-01  2.5099068590661305e-01  1.5190324692965251e-01  2.8455955316729326e-01  3.4139153793876986e-01  3.0040635553170220e-01  2.3879505060240055e-01  3.0930170857353856e-01  2.8994862444835401e-01  3.0730796906449354e-01  1.7591123845696530e-01  2.1500654224713506e-01  4.0357357639714375e-01  3.0199447458395073e-01  3.5523463241001896e-01  3.5856177149042429e-01  3.5196483458514211e-01  3.7544608482483416e-01  3.7262580769144488e-01  1.5418095025168246e-01  1.4762040394313383e-01  2.7865411013264874e-01  2.8619325101699150e-01  2.8169561150271116e-01  2.9339899982390405e-01  4.0946639870550394e-01  2.2677380589796164e-01  1.6755910162731150e-01  3.1332040177939180e-01  1.8352074544192268e-01  1.7330894887310758e-01  1.7313379444102120e-01  2.3081105866633658e-01  1.8373603323820720e-01  3.1100094100591291e-01  1.9867254542463941e-01  2.6533634164448822e-01  1.9915406833270499e-01  1.9265797016885922e-01  3.9948716084353425e-01  3.9927121575531543e-01  1.9416000334551867e-01  2.7440004228789971e-01  1.6644022228361985e-01  4.0494565467704607e-01  2.1516581842207896e-01  1.5447135819804711e-01  3.5510926026174794e-01  3.5392258665027315e-01  2.3906156504181891e-01  2.0127337727100131e-01  2.7128482726273867e-01  3.0836130234676379e-01  1.7120730106390561e-01  3.9326485373266795e-01  1.8036224484672631e-01  1.9692289950285696e-01  3.1671847235202694e-01  1.8645328813754758e-01  3.8831162499962441e-01  2.6634356367111595e-01  2.1332324709007261e-01  2.2544369342879880e-01  2.4558652523185107e-01  1.9908816253914791e-01  2.3151264377138223e-01  2.5095692774632283e-01  3.0552898993938110e-01  2.4675331544703469e-01  2.1069199817601986e-01  1.6487804946458598e-01  1.5476235633508389e-01  2.1558081981366994e-01  3.1415829278935714e-01  1.8237221948911858e-01  1.5595399287022271e-01  2.9354395858115639e-01  1.5838981112718770e-01  1.7672872733858325e-01  1.6621732446965554e-01  1.8006833246693149e-01  1.7457905265519300e-01  1.7664628955448852e-01  2.7154533887104942e-01  1.7685406301301024e-01  1.5080619632040826e-01  2.2338967364459880e-01  2.4077127493849884e-01  1.4806900791478686e-01  1.4887554525417582e-01  1.4946351655471668e-01  3.3738784917764797e-01  3.2169506935619829e-01  3.0684793205368927e-01  1.7728542297295313e-01  3.7476423633940836e-01  3.3028917257393148e-01  2.0863838385705175e-01  2.3498744100998303e-01  1.7369663042713510e-01  4.0057230531403615e-01  1.9638011365651409e-01  1.5304497153957866e-01  3.6889386741071867e-01  2.5742770599196269e-01  4.0620107238081066e-01  4.0990026097669541e-01  1.7366859660752948e-01  1.5156608858651316e-01  1.4815973763414869e-01  1.4940803759438437e-01  2.8838896343612513e-01  1.7555063673917198e-01  3.9319431726564280e-01  1.5169388457631325e-01  1.5271286808777804e-01  1.5051169666013059e-01  2.1220310787039598e-01  2.0760204182498934e-01  2.7003432186370824e-01  1.8229058326329733e-01  2.6228984443473918e-01  1.8412300728877307e-01  3.6807774556007555e-01  3.7039035279846194e-01  3.8082010952297307e-01  1.7805470243412477e-01  3.8030065959613851e-01  3.3932967552391763e-01  3.8835079853671683e-01  2.2767002872831624e-01  3.1048520956601827e-01  3.0914697271403924e-01  2.2071831307295764e-01  2.9017110169100496e-01  2.8100837430724979e-01  2.7372094634361294e-01  3.0516742978340589e-01  3.7705223726366460e-01  3.9407033405348246e-01  1.7299530028567942e-01  2.3449050828353823e-01  2.3589293868484687e-01  1.8271683316224493e-01  3.5888124032629709e-01  1.5613935916708283e-01  2.8337529210432194e-01  2.2432309562378869e-01  3.0697962244892052e-01  3.4668510198803659e-01  2.6902560007597554e-01  2.3138739658973265e-01  2.6452297795041707e-01  3.3096732069906831e-01  3.1844085544649009e-01  2.0913507725951785e-01  1.6702007228392329e-01  3.4969878473499810e-01  1.8371814243170595e-01  1.7596631829506490e-01  2.8765142107861835e-01  2.3984858089957031e-01  3.3679589889497963e-01  2.3552782549246887e-01  3.6164563904100322e-01  1.7768091378811615e-01  2.6605944997492342e-01  2.6005226824324973e-01  2.1041203784852272e-01  2.1420132758774155e-01  2.0957776345207457e-01  1.9872844696339911e-01  1.9914792642292828e-01  2.1366261397528588e-01  2.9823971975435881e-01  2.2287516359699827e-01  2.5531771449397955e-01  2.8295347602115056e-01  2.4551028627030938e-01  2.4104000127501402e-01  1.8950345800873730e-01  2.6452778193597659e-01  2.2144886218131626e-01  2.1521538116760824e-01  2.2216915141627955e-01  2.2958551937216123e-01  2.7750207583949160e-01  2.7331133999993062e-01  2.6219119678309988e-01  3.0667320665242159e-01  1.8310502345750690e-01  2.0138703632312313e-01  1.9961975863494782e-01  2.0556272071547499e-01  2.0966469320652564e-01  2.0089649115524086e-01  1.9282960986420850e-01  2.5414442917310393e-01  2.6209180731525200e-01  1.7888593573315437e-01  1.5581292521536266e-01  1.8273152231121809e-01  2.5910268138902154e-01  2.9227226437384668e-01  3.1688161292090672e-01  2.5134668396794996e-01  2.0207519857224310e-01  3.4080037626226134e-01  2.7550910914664795e-01  1.8886541507027338e-01  3.6314804197236689e-01  2.1188594155972088e-01  1.9361098007377844e-01  1.9273550030585226e-01  1.5894316741426787e-01  1.8761272651856950e-01  1.7944421207844147e-01  2.9213747829107195e-01  2.6160279805207420e-01  2.7708306083630146e-01  3.0690757639179256e-01  2.2252550171299337e-01  2.1386838255873519e-01  2.4911167662492267e-01  1.6675036851452887e-01  2.9481246636058878e-01  2.6876073530232009e-01  2.9140363000594921e-01  2.9901357656295646e-01  1.9758121603877110e-01  1.8196668391383858e-01  2.0417309414215057e-01  1.7848689423550787e-01  2.0361281550121660e-01  1.7266269076813470e-01  1.7389781211217945e-01  2.1653364238113587e-01  2.4877669492113136e-01  1.6729639343851027e-01  1.9258545477550540e-01  2.2620567284323578e-01  1.9592760713612881e-01  2.0450355354035002e-01  2.1222750746001054e-01  1.9373864670741267e-01  2.90201247683