<?xml version="1.0"?>
<VTKFile type="UnstructuredGrid"  version="0.1"  >
<UnstructuredGrid>
<Piece  NumberOfPoints="6486" NumberOfCells="12696">
<Points>
<DataArray  type="Float64"  NumberOfComponents="3"  format="ascii">0 5 0  0 0 0  5 0 0  5 5 0  2.5 0 0  5 2.5 0  2.5 5 0  0 2.5 0  2.5 2.5 0  0 1.25 0  1.25 0 0  1.25 5 0  0 3.75 0  5 1.25 0  3.75 0 0  5 3.75 0  3.75 5 0  3.541666666666667 1.458333333333333 0  1.458333333333333 3.541666666666667 0  1.875 1.25 0  3.75 3.125 0  1.284722222222222 2.326388888888889 0  2.683189655172414 3.767959770114943 0  0.9375 0.9375 0  4.0625 4.0625 0  0.7252209595959597 3.026357323232324 0  2.763480392156863 0.9129901960784315 0  1.875 4.345238095238095 0  4.345238095238095 1.875 0  4.192708333333333 0.8072916666666664 0  0.8072916666666665 4.192708333333334 0  3.368055555555555 2.326388888888889 0  0.6837606837606839 1.738782051282051 0  3.285485245626782 4.324328415208927 0  2.551239698778062 1.693130150610969 0  1.827256944444444 2.868923611111111 0  3.464875022477093 0.6813924607921316 0  1.942880513719175 2.059558626187995 0  3.04563492063492 2.971230158730159 0  4.375 3.4375 0  2.13639445139758 0.5994472256987903 0  4.272228422619047 2.606956845238095 0  0.625 0 0  0 0.625 0  5 4.375 0  4.375 5 0  0.6400043240752655 2.384646170113389 0  1.347691225855598 1.660875475110776 0  3.515783617857982 3.723905460714006 0  3.125 0 0  1.875 0 0  0.625 5 0  4.375 0 0  5 1.875 0  0 1.875 0  0 3.125 0  1.875 5 0  5 0.625 0  0 4.375 0  3.125 5 0  5 3.125 0  1.489644181965304 0.6007147273217681 0  2.054597701149425 3.742302955665024 0  2.662520990197781 4.39452575763237 0  2.415835363784578 3.165530021913244 0  0.8679986894865213 3.602373689486522 0  1.267459753787878 2.886186079545454 0  4.099702380952381 1.365327380952381 0  1.316964285714286 4.438244047619047 0  3.7915135293491 1.959691594758709 0  2.875141124191255 2.118761176511833 0  3.00418010501169 1.397414179299248 0  0.4081721322167092 3.410647930198662 0  0.4166666666666666 0.9375 0  1.014190407998288 0.4422301359994293 0  1.383260571305984 1.162718286082048 0  4.53125 3.90625 0  4.453125 4.453125 0  3.772848162504192 4.48678272083473 0  2.8125 0.404329517041716 0  0.4538690476190476 0.4538690476190476 0  2.305461739347387 1.04517007574828 0  3.771263799175824 2.624190260297553 0  3.229617768018734 1.809956994202883 0  3.780190884441317 1.025307111692601 0  4.646337365591398 0.9375 0  4.537623451379149 0.4609485750426037 0  1.200477888421151 3.934852888421152 0  0.3536626344086022 4.0625 0  0.4623765486208503 4.539051424957397 0  4.0625 0.353662634408602 0  4.560525106689535 1.390989100915847 0  3.958439078571988 3.619844539285994 0  4.672619047619047 2.1875 0  2.1875 4.672619047619047 0  1.862808494877602 3.325947624431087 0  0.3268135998175443 2.8125 0  4.674181280189791 2.8125 0  2.283233994935276 4.138623547175983 0  0.9375 4.677879119362977 0  3.08488061581743 3.469889594488945 0  3.113427375573758 3.913955730709506 0  1.652847799068813 3.950848935641292 0  2.932652662909449 2.550542739521724 0  3.311350648514189 1.088831994878698 0  0.6770833333333333 1.295851139601139 0  0 1.5625 0  1.047214787840024 1.96818092308125 0  4.183331482095785 3.03958703580843 0  3.4375 5 0  1.071307777252521 3.246275861010018 0  0 2.1875 0  0.386576856303419 2.03125 0  1.713862716483534 2.439783116849799 0  1.775396256975935 1.665976816304977 0  2.231236976948428 1.443917394671254 0  2.373900732409897 2.086930260150635 0  4.114918237574474 2.221646174618671 0  3.661302567757379 4.099620139144836 0  3.378215938602977 2.734494874063393 0  0.9842097536079312 2.597286741306247 0  1.642795138888889 4.672619047619047 0  4.0625 5 0  2.099458800960004 2.567446522665629 0  2.616202751603346 1.297895893940078 0  5 4.6875 0  0.9937554350075428 1.512592975947215 0  2.8125 5 0  3.002695327068194 4.614055254615477 0  3.205627424097207 0.3852436382721472 0  1.678616581261621 0.927556612265266 0  3.365326698305438 3.196943731162083 0  1.554834936170314 3.120009882655813 0  3.108408340729323 0.7797187795784133 0  3.684368918102174 0.3728877601163941 0  2.716214835303553 3.39276351922003 0  2.37718583984784 3.551973401560441 0  0.3750662445374837 1.52191994866787 0  2.679073487930202 2.844160731602957 0  1.557635869750078 1.991068682985722 0  1.812595698561088 0.3839273018252746 0  2.512014721281916 0.6320641118792227 0  2.1875 0 0  2.349973454443689 0.3189980586887866 0  4.6875 3.59375 0  4.636052949022233 3.178355898044465 0  4.6875 5 0  3.345485909784306 4.665765449101383 0  0.536727472389443 3.749603193819277 0  4.349541499640203 1.116201826262156 0  2.886559045931982 1.774013674579691 0  0.6770833333333334 0.7142857142857143 0  1.5625 0 0  4.120842096538671 4.628726497527622 0  2.176157474177018 1.793470423744689 0  2.175650736889416 2.909863021769539 0  4.036616464259081 1.709699085170981 0  3.887974623473683 0.6492597046022868 0  3.4375 0 0  3.70675699592552 2.289666624772415 0  4.697265625 4.208984375 0  2.815177577303495 4.085937578239174 0  4.672619047619047 1.730733296184288 0  4.6875 0 0  5 0.3125 0  0.3125 5 0  0 4.6875 0  0.3276089296588581 2.484526834811734 0  0.712433309515852 2.065138854645612 0  0.6376435912223634 2.711473454001295 0  1.184991292170422 0.7222504400947201 0  1.31884329779317 0.3206944232264773 0  3.683609198994263 3.44428698533042 0  0.3125 0 0  0 0.3125 0  4.231797269642997 3.789141808928991 0  1.564375596050781 1.425998687184973 0  2.007640894175573 0.9032106925568466 0  0.955125897558294 2.276666098587227 0  1.43898735721003 2.611310720271951 0  1.954491523717513 4.040700257877075 0  1.752947649777421 3.652439445419346 0  2.509575750247638 4.678021307664052 0  4.687194709705067 2.499965519538002 0  1.5625 5 0  0.9375 5 0  5 2.8125 0  2.1875 5 0  5 1.5625 0  5 2.1875 0  4.0625 0 0  5 0.9375 0  2.8125 0 0  0.9375 0 0  0 0.9375 0  0 2.8125 0  0 3.4375 0  0 4.0625 0  5 3.4375 0  5 4.0625 0  4.010848109290813 3.306446973933037 0  0.3077461147713075 3.119700563473354 0  4.6796875 4.6796875 0  2.333079012424948 3.845757959077508 0  0.7829771267899832 3.317744656243421 0  1.159100632608513 3.532487125138763 0  0.799066251840424 3.893573750162776 0  1.57326499580282 4.255438189102632 0  0.7309366047093668 0.2991402264438908 0  0.3054777494262156 1.223275888123843 0  4.027475154280377 2.78211326942427 0  2.35270874745988 4.426658168476266 0  3.474236283732569 2.021154281686229 0  4.401414236174444 2.329446628171927 0  3.39403781747337 3.987097102903034 0  1.077524329801934 1.214100792470484 0  4.065611571711903 1.066085524514197 0  2.165399002716117 3.335637450367864 0  3.007639563081306 1.093684039371638 0  4.030818285732145 4.351883315180857 0  3.504115222530889 1.739284194222036 0  1.224503368215566 4.712091441401919 0  3.805634204685714 1.321528442399996 0  4.319233123479386 1.573547993867769 0  1.024007670021325 4.394604704797005 0  3.776400432023095 3.839003324979723 0  2.991819819453308 4.320567175146181 0  0.9782797534072181 2.886406017887129 0  1.763835134082104 0.6602345487826022 0  3.765182288741625 1.631193038541544 0  2.267959593989681 2.345053543725764 0  4.412434895833333 4.168294270833333 0  4.4072265625 4.7255859375 0  2.791493971314009 3.11210833271929 0  3.408766223032414 3.469500900677365 0  1.915147569444444 4.725484476461039 0  2.070301968506271 0.2605666686358055 0  2.767932250651506 1.530295992695836 0  3.280065043173439 1.364863281105779 0  4.45101570110842 2.974157152713635 0  3.521928862999512 2.96990445010402 0  2.552921961347576 4.008414007169315 0  0.2682955376854191 3.657555015841003 0  3.084522868361304 2.310593316718068 0  2.669255823227708 1.939379494498064 0  2.615884629473921 2.238841231570381 0  1.405652091971449 0.8877813821442277 0  3.25151486618811 3.68536115104276 0  1.963741569810629 2.331207252264507 0  4.017297980292599 2.486269171379106 0  3.869168920841219 4.748188103831625 0  3.596868753579134 4.77342723825056 0  2.41262958240343 2.764128584995838 0  1.266750578673391 1.404747710001619 0  1.559243962241121 2.85146506328516 0  3.128799423834764 2.052081657715259 0  0.6770833333333333 0.9778025793650794 0  0.2083333333333333 0.78125 0  1.978224492765132 3.087074731032578 0  4.051448850909273 1.969392119104174 0  1.320577095006813 4.172234780971559 0  3.214261103850064 2.534397293281829 0  0.2635729089754111 1.779234736680035 0  3.510775680035133 4.460728640112889 0  2.603081405968802 0.2432579385496493 0  2.866341315154884 0.6662105505481998 0  3.000919221100777 0.2270278495648781 0  1.298858304121393 2.05917319923859 0  2.020292299736597 1.589794568392338 0  0.7401688396476035 4.470780315741533 0  0.6721783535561408 4.733125588707921 0  3.753712482075402 2.874301339727514 0  3.557348205914658 2.491958694539413 0  1.094565978195436 0.2011034254079851 0  0.9338148378011396 0.6833568465908735 0  2.945530578578538 3.701798332963805 0  3.111707186654356 3.216904195825605 0  1.341791111822685 3.293123262233967 0  1.632939924064587 1.184895891095613 0  0.6335477978936732 3.517393619499591 0  0.5576014611130192 3.210998966942492 0  1.564344196470102 0.3630498725895039 0  2.75362450242839 4.626680495816594 0  3.571304405229554 1.192452351107437 0  3.522934592621944 0.9359134489437148 0  4.453125 3.671875 0  4.765625 3.828125 0  1.055906321410838 4.14310472322957 0  4.795146539102229 0.46875 0  4.767156345199235 0.7178596932040019 0  0.2048534608977711 4.53125 0  0.232843654800765 4.282140306795998 0  0.5393715189906129 4.270810883024032 0  4.329922600274667 0.2750645887059072 0  4.275515096738972 0.5448389557295173 0  4.477747423652795 0.7252838358993123 0  0.2002829820452772 0.46875 0  0.4352678571428572 0.6956845238095237 0  0.5007241582667088 0.2123388122114133 0  4.672890923830735 0.2500902110494848 0  0.4308009280819452 4.783624996516437 0  2.104871305393774 4.438653689007242 0  0.2274454167838428 0.2274454167838428 0  3.446466574593436 0.4359605369011901 0  2.12354112127588 1.217588426759619 0  2.309175236825235 0.7888355970690434 0  2.556178570281936 1.054299163237582 0  0.578683248637
[...]
<PointData  Scalars="f_800-0"> 
<DataArray  type="Float64"  Name="f_800-0"  format="ascii">-4.5317065229904779e-01  -6.1810836665862900e-01  -4.4908618028017344e-01  -4.4370158633258994e-01  -5.3401042125556064e-01  -4.4891844862158586e-01  -4.5051871798820459e-01  -5.3506032030272033e-01  -5.2969137329215332e-01  -5.7751505051243879e-01  -5.7672958570035826e-01  -4.4954818241018618e-01  -4.9213862732321467e-01  -4.4892303221941848e-01  -4.9139460360856840e-01  -4.4917100751544164e-01  -4.4999909923741871e-01  -4.9832437477860997e-01  -4.9951453670189583e-01  -5.5542519591728690e-01  -4.9140014971885493e-01  -5.4073949744970551e-01  -4.9167788737862106e-01  -5.8390537379352769e-01  -4.7562536349890489e-01  -5.1705783155829610e-01  -5.2486801338317768e-01  -4.7263631606988571e-01  -4.7107320739399344e-01  -4.7603702656458746e-01  -4.7843760233422739e-01  -5.0461335561141107e-01  -5.6077950992048853e-01  -4.7278074886175364e-01  -5.3236335256775602e-01  -5.2226272751914216e-01  -5.0086474157979599e-01  -5.4674195005499826e-01  -5.1198022519394104e-01  -4.7032552275155487e-01  -5.4638962877685904e-01  -4.7359564009238037e-01  -5.9805771495573135e-01  -5.9866830668201720e-01  -4.4899554084902915e-01  -4.4945650573284895e-01  -5.3899335436956930e-01  -5.6225017879114236e-01  -4.9032728414291443e-01  -5.1233756076168779e-01  -5.5518008228110283e-01  -4.5215325686963198e-01  -4.7006712828253266e-01  -4.4869782972882194e-01  -5.5623912572894640e-01  -5.1358983269436354e-01  -4.5028142951608274e-01  -4.4900244093003683e-01  -4.7373796483020036e-01  -4.5029012046287226e-01  -4.4895470721194702e-01  -5.6853494119920267e-01  -4.9282348066019466e-01  -4.7051179956985723e-01  -5.1220394844682815e-01  -4.9735480835740870e-01  -5.2203699208654830e-01  -4.7926154263445564e-01  -4.6916216279485867e-01  -4.9000757366375858e-01  -5.2133401520514233e-01  -5.1680390754800909e-01  -5.0387758664985571e-01  -5.8804805713182018e-01  -5.8478414670337442e-01  -5.7131584388353329e-01  -4.6485280765565984e-01  -4.6214986570577476e-01  -4.6694741532881345e-01  -5.2326424108590863e-01  -6.0087596732974313e-01  -5.4080091572081590e-01  -4.9093306726963815e-01  -5.0926257032659716e-01  -4.9017345022475262e-01  -4.6075392862194325e-01  -4.6455101013289440e-01  -4.8603330658594451e-01  -4.8147278458785736e-01  -4.6528360524362466e-01  -4.8062631853089199e-01  -4.6345366303990010e-01  -4.8314293414973547e-01  -4.5988441816062847e-01  -4.6146413480164838e-01  -5.0685401206782354e-01  -5.2437499257474518e-01  -4.5983143077617433e-01  -4.7930165652836954e-01  -4.6057568461054488e-01  -5.0052791344740633e-01  -4.8671134415669576e-01  -4.8563568703648258e-01  -5.1871579388588374e-01  -5.0614300110425658e-01  -5.7581844365708590e-01  -5.6688973717274649e-01  -5.5294666462583608e-01  -4.7694386616973589e-01  -4.5017350086229901e-01  -5.0951566114968305e-01  -5.4560663380179575e-01  -5.5135764870321680e-01  -5.3680096536609589e-01  -5.5653057598799771e-01  -5.4326442823019749e-01  -5.3754726599589020e-01  -4.7883715852401781e-01  -4.7924084133614292e-01  -5.0414491587913579e-01  -5.3164257857186936e-01  -4.6088131287590228e-01  -4.4984997477227751e-01  -5.3205978262935327e-01  -5.3025816870556819e-01  -4.4733705820140518e-01  -5.6824686005028568e-01  -4.5044539017901852e-01  -4.6323819554536899e-01  -5.0968572791294020e-01  -5.6211471137065072e-01  -5.0221377367114828e-01  -5.1398461214651570e-01  -5.1313988165125701e-01  -4.9328060993006539e-01  -5.0432776400636259e-01  -4.9904758463422588e-01  -5.6817593095513874e-01  -5.2015725476928976e-01  -5.5191357517512607e-01  -5.5743433136237985e-01  -5.3342530947909017e-01  -5.4449329135638824e-01  -5.3888086050223183e-01  -4.5966114488489196e-01  -4.6124832335646465e-01  -4.4765867629457945e-01  -4.6108951863132891e-01  -4.9211290616706255e-01  -4.7064666172901376e-01  -5.2111579710942879e-01  -5.9213057250227408e-01  -5.6600048427926497e-01  -4.6143258860664776e-01  -5.4484740471296778e-01  -5.2087797832202432e-01  -4.8142821337186292e-01  -4.8634600188192195e-01  -5.0184019547013625e-01  -4.9296155102751876e-01  -4.5860476771532704e-01  -4.8104885011374110e-01  -4.5970363526287555e-01  -4.5944382814703816e-01  -4.4908222403838566e-01  -4.5352607651339816e-01  -4.6305598001849091e-01  -5.3548078220185813e-01  -5.4973308259302767e-01  -5.2774444192250369e-01  -5.7897039057457567e-01  -5.7436773139937680e-01  -4.9188830331390843e-01  -6.0875242942250185e-01  -6.0943326020520328e-01  -4.7432101642492552e-01  -5.6418472653898910e-01  -5.5090285737489031e-01  -5.4249175436125818e-01  -5.3115760367957143e-01  -4.8274079326689023e-01  -4.9580178447953765e-01  -4.6111601141770986e-01  -4.5936227014144637e-01  -4.5058901262374546e-01  -4.5017309362739627e-01  -4.4899394410486837e-01  -4.5024019434335572e-01  -4.4874664078381826e-01  -4.4877377349882092e-01  -4.8071742873732776e-01  -4.4910314445372584e-01  -5.2308788150173491e-01  -5.8736117509474584e-01  -5.8809946171643901e-01  -5.2425580837881491e-01  -5.0285792787041794e-01  -4.8065116389987145e-01  -4.4906108945821860e-01  -4.4920362335708824e-01  -4.8259521179566262e-01  -5.1378460328907927e-01  -4.5440274403802861e-01  -4.8925642581823470e-01  -5.0713481245918812e-01  -4.9987223236781092e-01  -4.8756360373933799e-01  -4.7541622102816061e-01  -5.9443653570309130e-01  -5.7835284176514257e-01  -4.8214478577647346e-01  -4.6988263196198049e-01  -5.0089052594664507e-01  -4.6902796191259943e-01  -4.8376451489640721e-01  -5.7610180889564866e-01  -4.8035957114235894e-01  -5.0641087374329230e-01  -5.1658188692290330e-01  -4.6976836999686045e-01  -4.9971394468501246e-01  -4.6032129375050984e-01  -4.8937798973562296e-01  -4.7178667257374224e-01  -4.7128532517137373e-01  -4.8440011868846367e-01  -4.7287942725040261e-01  -5.2185178827623036e-01  -5.5921662513276027e-01  -4.9069656795265398e-01  -5.3633219442145708e-01  -4.6677141858873616e-01  -4.5688472840336036e-01  -5.1243023071622629e-01  -4.9717882530798285e-01  -4.5929172320871237e-01  -5.4856128821436068e-01  -5.2501907839796513e-01  -5.0731199833770824e-01  -4.6755594679242857e-01  -4.9904054713905821e-01  -4.8360016526734911e-01  -4.9535080193225006e-01  -5.1422473025349968e-01  -5.2834562148472208e-01  -5.2968946876018963e-01  -5.7141810427571493e-01  -4.9342753028498604e-01  -5.3965650406720977e-01  -4.8233465930826619e-01  -4.5821253223338454e-01  -4.5747915697417185e-01  -5.2463991286882627e-01  -5.6957008773684825e-01  -5.2297148517148628e-01  -5.1277992804266159e-01  -5.8575088645001772e-01  -5.9333791649141399e-01  -5.1486191957317695e-01  -4.8101721984985091e-01  -4.7805978824720463e-01  -5.0974937691356026e-01  -5.5946834463388462e-01  -4.6806057180474248e-01  -5.3042053343120010e-01  -5.2130989312751508e-01  -5.1668596020191415e-01  -5.4980286298342440e-01  -5.5031154987058972e-01  -4.6758081202135804e-01  -4.5873757053043451e-01  -4.9142739977844296e-01  -4.9822613194103854e-01  -5.8202127297514616e-01  -5.8716905221261251e-01  -4.9389407842654226e-01  -5.0655208082518299e-01  -5.0802805604064283e-01  -5.6362336594679230e-01  -5.0035209911140621e-01  -5.1074230717364366e-01  -5.6602507948628067e-01  -4.6271768244895611e-01  -4.9732471424817659e-01  -4.9905326752096402e-01  -4.6758583901776513e-01  -4.5705564740464172e-01  -4.7911841367979102e-01  -4.5570168125080002e-01  -4.5682505796604223e-01  -4.6788934023939532e-01  -4.7382901210039202e-01  -4.7442233780278337e-01  -4.7162795541478048e-01  -4.7337723057314035e-01  -4.6650504854020708e-01  -6.0334563157341448e-01  -5.9525100778203865e-01  -6.0231119217140483e-01  -4.5995203604225732e-01  -4.5925665998554466e-01  -4.6934355995483695e-01  -6.0900211901491030e-01  -5.0137344329026556e-01  -5.4693675850670531e-01  -5.4058111123194175e-01  -5.3223058196652717e-01  -4.8487316289133148e-01  -5.0636246247153627e-01  -5.4323231784223602e-01  -4.8757403756228235e-01  -4.8738612860172009e-01  -4.5737889168027673e-01  -4.5648165832032028e-01  -4.5534814275215962e-01  -5.7847251720508253e-01  -4.9107344601526298e-01  -4.9098123182726522e-01  -5.1453322252460831e-01  -4.7072975535568051e-01  -5.1333863771151766e-01  -4.9334817045025026e-01  -5.6035844659703882e-01  -5.0597342478598240e-01  -4.9975635519422795e-01  -4.7112936341618661e-01  -5.6065067074681174e-01  -4.6742110944357013e-01  -4.7577113972054663e-01  -5.4283178337594928e-01  -4.5644287172037495e-01  -5.7220234633339073e-01  -5.3320281009025827e-01  -4.7780302472647224e-01  -4.7998356065294739e-01  -4.8348952408889168e-01  -4.5588709092278484e-01  -5.2101385956864377e-01  -5.2971905682037612e-01  -4.5427994457216186e-01  -4.6561454091909016e-01  -5.4660831268747623e-01  -5.0705543963721278e-01  -5.0599954568347250e-01  -4.7365355236808160e-01  -4.9647468744790640e-01  -4.5436224695781080e-01  -4.7990266489066946e-01  -5.2290074311538104e-01  -4.5743452605469465e-01  -5.3032992049429273e-01  -5.6830015606896600e-01  -5.8023784927954558e-01  -5.8123013910228161e-01  -5.0614473203421806e-01  -5.0827863739415102e-01  -5.4027306807065911e-01  -4.5426936401018031e-01  -4.5430463885129624e-01  -4.5546498567506899e-01  -4.5940692552796553e-01  -4.4929621477022419e-01  -4.8412801306017006e-01  -4.7358555821885578e-01  -5.2431364690532367e-01  -4.5452031660126652e-01  -5.1466480642995949e-01  -4.7696046599229919e-01  -4.7953701165168289e-01  -4.8895457892810185e-01  -5.2403844799141208e-01  -5.1934568177969498e-01  -5.9246942763679322e-01  -4.6746788766506514e-01  -5.0564663645207508e-01  -5.4164596377084417e-01  -5.3762495296058466e-01  -4.5555960005677398e-01  -5.5691003782509763e-01  -5.5825710635339554e-01  -5.6067396317665474e-01  -5.5071832318133496e-01  -4.8457147829531133e-01  -5.2950910121539418e-01  -4.9921748571615082e-01  -5.1358258848417859e-01  -4.8613167059372198e-01  -4.7626041902293637e-01  -4.6380053767452223e-01  -5.1537589410427320e-01  -5.3340286270110793e-01  -5.7781578231858521e-01  -4.6862689060120705e-01  -5.5778039548351643e-01  -5.5327368627517859e-01  -4.7040781214878635e-01  -5.1724401161148759e-01  -5.0742894554511719e-01  -4.6291308547082571e-01  -5.2581364992414703e-01  -5.8524971260691439e-01  -5.5285526764515891e-01  -4.8578203836005301e-01  -4.7448419058775454e-01  -5.1569846051261881e-01  -4.7565482065354497e-01  -4.5844174796652148e-01  -5.1457052837387440e-01  -5.6286668565219211e-01  -4.5394640891195459e-01  -5.3809297638686671e-01  -5.3502735741817165e-01  -5.3962201153822720e-01  -4.6982404818844453e-01  -5.0332329638398832e-01  -5.1476842540461465e-01  -4.9697476215967912e-01  -5.7433080655961888e-01  -5.4557131791860991e-01  -4.4976110481995035e-01  -5.3129758808994021e-01  -4.8775479567965041e-01  -4.8809809677908789e-01  -4.6804972952513052e-01  -5.2724557619803514e-01  -5.3681890963918100e-01  -4.9331308576919114e-01  -4.9689068219165883e-01  -4.8497484761122067e-01  -4.7930566673183217e-01  -5.7129991205637953e-01  -5.1871305775220911e-01  -4.5552265785917573e-01  -4.6394950811599261e-01  -4.8024030419407665e-01  -5.3306048266693329e-01  -4.8386479429388901e-01  -5.2360311935513715e-01  -4.7965910054849559e-01  -5.6874986974903774e-01  -4.6430637712214856e-01  -5.0189024350699363e-01  -5.4474573136758753e-01  -4.9507633917180971e-01  -4.5244355618893878e-01  -5.5671077691361559e-01  -5.0178839205128589e-01  -5.2338366683201742e-01  -5.5330699018453611e-01  -4.6476591360209824e-01  -5.0572500538220977e-01  -5.4595714094636993e-01  -4.6781549097288971e-01  -4.5923177314714736e-01  -4.6669514211569102e-01  -4.5018921816017715e-01  -5.5049817865851214e-01  -5.6925349075719733e-01  -5.2681331144130661e-01  -5.6569229135032539e-01  -5.0000531001083071e-01  -5.1132692215069775e-01  -5.3332200857582668e-01  -4.7543969257448787e-01  -4.7745712773468768e-01  -5.2681958141455798e-01  -4.6580112408071628e-01  -5.5421046559607723e-01  -5.1166614267223620e-01  -5.7445201692127923e-01  -4.8696568801343559e-01  -5.6610687493433032e-01  -5.5828992396137733e-01  -5.3963691856077300e-01  -5.2764008540238938e-01  -5.2769934660367512e-01  -4.9844244952399724e-01  -4.9279714772133115e-01  -5.0960568693531239e-01  -5.8799623518254418e-01  -4.5093733209257297e-01  -4.6376386543134612e-01  -4.6184934144517048e-01  -4.6517714589409315e-01  -5.3855967901592749e-01  -4.5028566282517452e-01  -5.6735810604106085e-01  -5.4487865053327644e-01  -5.3750273903567058e-01  -4.7431614561553581e-01  -5.1757017028998542e-01  -5.1905351263404675e-01  -4.7611439819055179e-01  -5.1551314751005506e-01  -4.4867260290044286e-01  -4.6053535885756169e-01  -4.8879077011058814e-01  -4.7175050990561396e-01  -4.9011824605260318e-01  -4.7116674946880510e-01  -4.8370235070656514e-01  -5.0922567987709677e-01  -5.3448895999716561e-01  -5.9271718644001026e-01  -4.4899063278508844e-01  -4.5474981478551935e-01  -4.5600376305306067e-01  -5.5466925801508193e-01  -4.9491234218169661e-01  -4.9795488966750912e-01  -4.9597471183560166e-01  -4.5644145193806901e-01  -5.5127222961903122e-01  -4.7682176992153158e-01  -5.5180405283364997e-01  -5.4851647365441325e-01  -4.8429586396094432e-01  -4.9748144425545915e-01  -4.8485355480623327e-01  -4.5503820034025028e-01  -4.5540273053685087e-01  -5.4279271095156223e-01  -5.6308018914810232e-01  -5.2749207803482523e-01  -4.6228110506176096e-01  -4.6973463286161266e-01  -4.9163070478274790e-01  -4.9914008079718841e-01  -4.9486408925368114e-01  -4.8881440256559749e-01  -4.8145580780246222e-01  -4.7332997337426835e-01  -4.7555803804521485e-01  -5.3583007385450432e-01  -4.4890422555594645e-01  -4.7693736495868977e-01  -4.7836156785824602e-01  -4.8525771599648465e-01  -4.5428102659565806e-01  -4.6230034190884856e-01  -4.5507531003627366e-01  -4.4891105157973160e-01  -4.7386621376413973e-01  -4.7515410156386029e-01  -5.4513586377868417e-01  -5.4407035538515369e-01  -5.0701526021821053e-01  -4.6684735705728286e-01  -4.5575798231790898e-01  -5.0401209411876147e-01  -4.5371058036851292e-01  -4.6236322205148617e-01  -5.2694030958771831e-01  -5.2235227394840034e-01  -4.6183944347479366e-01  -4.7069856398165488e-01  -5.0170483821906109e-01  -5.5632318100768607e-01  -4.8533412192179015e-01  -4.6405200399448232e-01  -4.6573209987115238e-01  -5.9643722852146186e-01  -5.9091337697401780e-01  -5.8820998539567282e-01  -4.9377645219418487e-01  -4.5414793164838446e-01  -4.9833970276231287e-01  -5.6154633992376113e-01  -4.5431926554580082e-01  -4.6343788662391688e-01  -5.1555055243872350e-01  -5.0302721425811447e-01  -4.7518198052045035e-01  -4.5196760853386009e-01  -5.1042947156685858e-01  -4.6344575767278590e-01  -4.5450100514970460e-01  -5.6371829197588386e-01  -5.1735671972532671e-01  -5.0434366072876380e-01  -4.6532129964635316e-01  -4.5406768980132628e-01  -4.9966404310968160e-01  -4.8903670993493165e-01  -5.7993121563184480e-01  -5.1163336056117759e-01  -4.4918362864047162e-01  -5.2584925513762593e-01  -5.5237339951701070e-01  -5.2749276219412700e-01  -4.9791352052438409e-01  -5.3330323823212999e-01  -5.3220876886410640e-01  -5.4493016655587778e-01  -4.6558556917143590e-01  -4.9122940121804148e-01  -5.9787499022386914e-01  -5.2779454946793702e-01  -5.7299249353165282e-01  -5.7648390812960315e-01  -5.7229321017787727e-01  -5.8236395010679154e-01  -5.8267822778674661e-01  -4.5421720632422063e-01  -4.4874313462227317e-01  -5.2042441046431509e-01  -5.2026003332789483e-01  -5.2681449163672023e-01  -5.2245160192226325e-01  -5.9837229719145868e-01  -4.9317279471596226e-01  -4.6150207065136239e-01  -5.4986062245616785e-01  -4.6934372854487244e-01  -4.6585069164957188e-01  -4.6293516183849259e-01  -4.8615246661198736e-01  -4.6578708027142990e-01  -5.4510592364605093e-01  -4.7819802579031623e-01  -5.1945561301710441e-01  -4.6547500199357145e-01  -4.6123749603550557e-01  -6.1385699333767840e-01  -6.1295239648031341e-01  -4.7494352489703234e-01  -5.2847008601649170e-01  -4.5812467860281053e-01  -6.0440951198275328e-01  -4.7757737722489413e-01  -4.5363304636949620e-01  -5.6856535108375228e-01  -5.6568279486240847e-01  -5.0386436722304051e-01  -4.7946467547223826e-01  -5.1005179069501161e-01  -5.4596472516300043e-01  -4.4996645760237586e-01  -5.9712055505529416e-01  -4.6827998870142085e-01  -4.8067412005186272e-01  -5.5189065893728517e-01  -4.7317276160644306e-01  -5.8102407187560079e-01  -5.0523981117603545e-01  -4.7397821719509636e-01  -4.8087993718384126e-01  -4.9411406698011429e-01  -4.7530261191873741e-01  -5.0170048606352691e-01  -5.0801983778154325e-01  -5.3491654628293839e-01  -4.9682032242167223e-01  -4.8583972721901270e-01  -4.5959189338190087e-01  -4.5387912162100619e-01  -4.7615074774794203e-01  -5.3500299411754937e-01  -4.5551054680046638e-01  -4.5404852973937276e-01  -5.3924913461755464e-01  -4.4876246629629407e-01  -4.5055452807356045e-01  -4.4996255926625528e-01  -4.5774561511881479e-01  -4.5275782327793029e-01  -4.5087193633476086e-01  -5.0819922993469657e-01  -4.5112275867850171e-01  -4.4900720622128465e-01  -4.9663345854629554e-01  -5.0709218950701485e-01  -4.4885474570937506e-01  -4.4896344519905007e-01  -4.4897496624111871e-01  -5.5093572624316389e-01  -5.4033032513365908e-01  -5.2968597130898731e-01  -4.5032060478728919e-01  -5.7223411808799196e-01  -5.6065608802202016e-01  -4.8602287041326309e-01  -4.8667566206240920e-01  -4.5294006780107698e-01  -6.0337032938451673e-01  -4.6858154167752519e-01  -4.4908966581021176e-01  -5.8204154673566011e-01  -5.1774297682115522e-01  -6.0393610125555597e-01  -5.9342166542129615e-01  -4.4999597181134621e-01  -4.4832390803762573e-01  -4.4596603981246447e-01  -4.4607213719566163e-01  -5.1894626635066721e-01  -4.5033009868562779e-01  -5.8283698587453991e-01  -4.4914572023461263e-01  -4.4931141200193830e-01  -4.4902493547613598e-01  -4.8969856246755755e-01  -4.7052925239891419e-01  -5.0924414253749084e-01  -4.5555162799192156e-01  -5.1870410962352631e-01  -4.5664281040630461e-01  -5.7563349471107705e-01  -5.7229713124087334e-01  -5.8005302612872922e-01  -4.6593130433404256e-01  -5.9004821893885706e-01  -5.5576163111755728e-01  -5.8002347844974378e-01  -4.8280861210048520e-01  -5.3402270108480054e-01  -5.4595439437654303e-01  -4.7774251601406337e-01  -5.1908195907488752e-01  -5.1411993782192977e-01  -5.0933892182374185e-01  -5.2965778649616602e-01  -5.7319406373225323e-01  -5.8302298388831342e-01  -4.6500389213640581e-01  -4.9199219016340684e-01  -4.8788168423461842e-01  -4.7088989717334179e-01  -5.6587025676054337e-01  -4.5459905198222256e-01  -5.1564078124892865e-01  -4.8080528496649783e-01  -5.3834764467865692e-01  -5.5528904915065047e-01  -5.1631327678769012e-01  -4.8444785731922835e-01  -5.2032096828764185e-01  -5.4787356182870450e-01  -5.4159822769621579e-01  -4.8824105514106736e-01  -4.6241488505031347e-01  -5.5808160269989204e-01  -4.7199824132611978e-01  -4.6799992214760611e-01  -5.1999605511269753e-01  -5.0416266900082440e-01  -5.6023923226036398e-01  -5.0066152257074725e-01  -5.7409099199666347e-01  -4.6579814544794551e-01  -5.0543276120897751e-01  -5.0252512055001564e-01  -4.7499559022112581e-01  -4.8764828679339917e-01  -4.8551270044058631e-01  -4.7849343092411273e-01  -4.7936484444130889e-01  -4.7351763144745512e-01  -5.2453069495258342e-01  -4.8051376801418122e-01  -4.9835769245148165e-01  -5.3031476356149232e-01  -4.9256615536096321e-01  -4.8967277032186352e-01  -4.5982352243476876e-01  -5.1770856348883576e-01  -4.9477544672996732e-01  -4.9189992298580659e-01  -4.7876366735085368e-01  -4.8450140173502787e-01  -5.1182238314839690e-01  -5.0962689923081117e-01  -5.0235060160699430e-01  -5.4096351162145939e-01  -4.7126301466541670e-01  -4.6633772528915984e-01  -4.6548628530137015e-01  -4.6945158907776458e-01  -4.7277612433847133e-01  -4.6637929974511722e-01  -4.6326235351466444e-01  -5.1043391224138279e-01  -5.1977602206275686e-01  -4.6630429806930790e-01  -4.5533211563847975e-01  -4.7019978723869155e-01  -5.0285840081289357e-01  -5.2236774303117606e-01  -5.3790841414116985e-01  -5.0897990417333450e-01  -4.8240395079492177e-01  -5.6063172444208920e-01  -5.2831946052579726e-01  -4.6119959759145301e-01  -5.6512528670253293e-01  -4.8986650266072546e-01  -4.724088