<?xml version="1.0"?>
<VTKFile type="UnstructuredGrid"  version="0.1"  >
<UnstructuredGrid>
<Piece  NumberOfPoints="6486" NumberOfCells="12696">
<Points>
<DataArray  type="Float64"  NumberOfComponents="3"  format="ascii">0 2.5 0  0 0 0  2.5 0 0  2.5 2.5 0  1.25 0 0  2.5 1.25 0  1.25 2.5 0  0 1.25 0  1.25 1.25 0  0 0.625 0  0.625 0 0  0.625 2.5 0  0 1.875 0  2.5 0.625 0  1.875 0 0  2.5 1.875 0  1.875 2.5 0  1.770833333333333 0.7291666666666666 0  0.7291666666666666 1.770833333333333 0  0.9375 0.625 0  1.875 1.5625 0  0.642361111111111 1.163194444444444 0  1.341594827586207 1.883979885057471 0  0.46875 0.46875 0  2.03125 2.03125 0  0.3626104797979798 1.513178661616162 0  1.381740196078431 0.4564950980392157 0  0.9375 2.172619047619047 0  2.172619047619047 0.9375 0  2.096354166666667 0.4036458333333332 0  0.4036458333333333 2.096354166666667 0  1.684027777777778 1.163194444444444 0  0.3418803418803419 0.8693910256410255 0  1.642742622813391 2.162164207604464 0  1.275619849389031 0.8465650753054845 0  0.9136284722222221 1.434461805555556 0  1.732437511238546 0.3406962303960658 0  0.9714402568595876 1.029779313093998 0  1.52281746031746 1.485615079365079 0  2.1875 1.71875 0  1.06819722569879 0.2997236128493951 0  2.136114211309524 1.303478422619048 0  0.3125 0 0  0 0.3125 0  2.5 2.1875 0  2.1875 2.5 0  0.3200021620376328 1.192323085056694 0  0.6738456129277992 0.8304377375553881 0  1.757891808928991 1.861952730357003 0  1.5625 0 0  0.9375 0 0  0.3125 2.5 0  2.1875 0 0  2.5 0.9375 0  0 0.9375 0  0 1.5625 0  0.9375 2.5 0  2.5 0.3125 0  0 2.1875 0  1.5625 2.5 0  2.5 1.5625 0  0.7448220909826522 0.3003573636608841 0  1.027298850574712 1.871151477832512 0  1.331260495098891 2.197262878816185 0  1.207917681892289 1.582765010956622 0  0.4339993447432606 1.801186844743261 0  0.6337298768939392 1.443093039772727 0  2.049851190476191 0.6826636904761904 0  0.6584821428571428 2.219122023809524 0  1.89575676467455 0.9798457973793544 0  1.437570562095628 1.059380588255917 0  1.502090052505845 0.6987070896496241 0  0.2040860661083546 1.705323965099331 0  0.2083333333333333 0.46875 0  0.5070952039991439 0.2211150679997147 0  0.6916302856529919 0.5813591430410241 0  2.265625 1.953125 0  2.2265625 2.2265625 0  1.886424081252096 2.243391360417365 0  1.40625 0.202164758520858 0  0.2269345238095238 0.2269345238095238 0  1.152730869673694 0.5225850378741401 0  1.885631899587912 1.312095130148776 0  1.614808884009367 0.9049784971014416 0  1.890095442220658 0.5126535558463003 0  2.323168682795699 0.46875 0  2.268811725689575 0.2304742875213018 0  0.6002389442105756 1.967426444210576 0  0.1768313172043011 2.03125 0  0.2311882743104251 2.269525712478698 0  2.03125 0.176831317204301 0  2.280262553344767 0.6954945504579233 0  1.979219539285994 1.809922269642997 0  2.336309523809524 1.09375 0  1.09375 2.336309523809524 0  0.9314042474388009 1.662973812215543 0  0.1634067999087722 1.40625 0  2.337090640094896 1.40625 0  1.141616997467638 2.069311773587991 0  0.46875 2.338939559681489 0  1.542440307908715 1.734944797244472 0  1.556713687786879 1.956977865354753 0  0.8264238995344066 1.975424467820646 0  1.466326331454725 1.275271369760862 0  1.655675324257095 0.5444159974393489 0  0.3385416666666666 0.6479255698005697 0  0 0.78125 0  0.5236073939200119 0.984090461540625 0  2.091665741047893 1.519793517904215 0  1.71875 2.5 0  0.5356538886262603 1.623137930505009 0  0 1.09375 0  0.1932884281517095 1.015625 0  0.8569313582417669 1.2198915584249 0  0.8876981284879677 0.8329884081524883 0  1.115618488474214 0.7219586973356271 0  1.186950366204949 1.043465130075318 0  2.057459118787237 1.110823087309335 0  1.830651283878689 2.049810069572418 0  1.689107969301489 1.367247437031697 0  0.4921048768039656 1.298643370653124 0  0.8213975694444444 2.336309523809524 0  2.03125 2.5 0  1.049729400480002 1.283723261332814 0  1.308101375801673 0.6489479469700392 0  2.5 2.34375 0  0.4968777175037714 0.7562964879736076 0  1.40625 2.5 0  1.501347663534097 2.307027627307738 0  1.602813712048603 0.1926218191360736 0  0.8393082906308107 0.463778306132633 0  1.682663349152719 1.598471865581041 0  0.7774174680851571 1.560004941327907 0  1.554204170364662 0.3898593897892066 0  1.842184459051087 0.186443880058197 0  1.358107417651776 1.696381759610015 0  1.18859291992392 1.77598670078022 0  0.1875331222687418 0.7609599743339348 0  1.339536743965101 1.422080365801479 0  0.7788179348750389 0.9955343414928611 0  0.9062978492805438 0.1919636509126373 0  1.256007360640958 0.3160320559396114 0  1.09375 0 0  1.174986727221844 0.1594990293443933 0  2.34375 1.796875 0  2.318026474511116 1.589177949022232 0  2.34375 2.5 0  1.672742954892153 2.332882724550692 0  0.2683637361947215 1.874801596909639 0  2.174770749820102 0.5581009131310781 0  1.443279522965991 0.8870068372898454 0  0.3385416666666667 0.3571428571428572 0  0.78125 0 0  2.060421048269335 2.314363248763811 0  1.088078737088509 0.8967352118723447 0  1.087825368444708 1.454931510884769 0  2.018308232129541 0.8548495425854904 0  1.943987311736842 0.3246298523011434 0  1.71875 0 0  1.85337849796276 1.144833312386208 0  2.3486328125 2.1044921875 0  1.407588788651747 2.042968789119587 0  2.336309523809524 0.865366648092144 0  2.34375 0 0  2.5 0.15625 0  0.15625 2.5 0  0 2.34375 0  0.1638044648294291 1.242263417405867 0  0.356216654757926 1.032569427322806 0  0.3188217956111817 1.355736727000647 0  0.5924956460852111 0.36112522004736 0  0.6594216488965849 0.1603472116132387 0  1.841804599497131 1.72214349266521 0  0.15625 0 0  0 0.15625 0  2.115898634821499 1.894570904464496 0  0.7821877980253907 0.7129993435924866 0  1.003820447087786 0.4516053462784233 0  0.477562948779147 1.138333049293613 0  0.719493678605015 1.305655360135975 0  0.9772457618587566 2.020350128938537 0  0.8764738248887107 1.826219722709673 0  1.254787875123819 2.339010653832026 0  2.343597354852534 1.249982759769001 0  0.78125 2.5 0  0.46875 2.5 0  2.5 1.40625 0  1.09375 2.5 0  2.5 0.78125 0  2.5 1.09375 0  2.03125 0 0  2.5 0.46875 0  1.40625 0 0  0.46875 0 0  0 0.46875 0  0 1.40625 0  0 1.71875 0  0 2.03125 0  2.5 1.71875 0  2.5 2.03125 0  2.005424054645407 1.653223486966518 0  0.1538730573856537 1.559850281736677 0  2.33984375 2.33984375 0  1.166539506212474 1.922878979538754 0  0.3914885633949916 1.65887232812171 0  0.5795503163042564 1.766243562569382 0  0.399533125920212 1.946786875081388 0  0.7866324979014098 2.127719094551316 0  0.3654683023546834 0.1495701132219454 0  0.1527388747131078 0.6116379440619215 0  2.013737577140188 1.391056634712135 0  1.17635437372994 2.213329084238133 0  1.737118141866284 1.010577140843115 0  2.200707118087222 1.164723314085963 0  1.697018908736685 1.993548551451517 0  0.5387621649009668 0.6070503962352419 0  2.032805785855952 0.5330427622570983 0  1.082699501358059 1.667818725183932 0  1.503819781540653 0.5468420196858188 0  2.015409142866072 2.175941657590429 0  1.752057611265444 0.869642097111018 0  0.612251684107783 2.356045720700959 0  1.902817102342857 0.6607642211999982 0  2.159616561739693 0.7867739969338844 0  0.5120038350106624 2.197302352398502 0  1.888200216011548 1.919501662489862 0  1.495909909726654 2.16028358757309 0  0.489139876703609 1.443203008943564 0  0.8819175670410521 0.3301172743913011 0  1.882591144370812 0.8155965192707721 0  1.133979796994841 1.172526771862882 0  2.206217447916667 2.084147135416667 0  2.20361328125 2.36279296875 0  1.395746985657004 1.556054166359645 0  1.704383111516207 1.734750450338683 0  0.9575737847222222 2.36274223823052 0  1.035150984253136 0.1302833343179028 0  1.383966125325753 0.7651479963479179 0  1.64003252158672 0.6824316405528895 0  2.22550785055421 1.487078576356817 0  1.760964431499756 1.48495222505201 0  1.276460980673788 2.004207003584658 0  0.1341477688427096 1.828777507920502 0  1.542261434180652 1.155296658359034 0  1.334627911613854 0.9696897472490321 0  1.30794231473696 1.119420615785191 0  0.7028260459857245 0.4438906910721139 0  1.625757433094055 1.84268057552138 0  0.9818707849053143 1.165603626132254 0  2.0086489901463 1.243134585689553 0  1.934584460420609 2.374094051915812 0  1.798434376789567 2.38671361912528 0  1.206314791201715 1.382064292497919 0  0.6333752893366955 0.7023738550008095 0  0.7796219811205605 1.42573253164258 0  1.564399711917382 1.026040828857629 0  0.3385416666666666 0.4889012896825397 0  0.1041666666666667 0.390625 0  0.989112246382566 1.543537365516289 0  2.025724425454636 0.9846960595520872 0  0.6602885475034063 2.086117390485779 0  1.607130551925032 1.267198646640915 0  0.1317864544877056 0.8896173683400176 0  1.755387840017567 2.230364320056445 0  1.301540702984401 0.1216289692748247 0  1.433170657577442 0.3331052752740999 0  1.500459610550388 0.113513924782439 0  0.6494291520606965 1.029586599619295 0  1.010146149868299 0.794897284196169 0  0.3700844198238017 2.235390157870766 0  0.3360891767780704 2.36656279435396 0  1.876856241037701 1.437150669863757 0  1.778674102957329 1.245979347269706 0  0.5472829890977179 0.1005517127039925 0  0.4669074189005698 0.3416784232954367 0  1.472765289289269 1.850899166481903 0  1.555853593327178 1.608452097912802 0  0.6708955559113426 1.646561631116984 0  0.8164699620322933 0.5924479455478063 0  0.3167738989468366 1.758696809749795 0  0.2788007305565096 1.605499483471246 0  0.7821720982350511 0.181524936294752 0  1.376812251214195 2.313340247908297 0  1.785652202614777 0.5962261755537186 0  1.761467296310972 0.4679567244718574 0  2.2265625 1.8359375 0  2.3828125 1.9140625 0  0.5279531607054191 2.071552361614785 0  2.397573269551114 0.234375 0  2.383578172599618 0.3589298466020009 0  0.1024267304488855 2.265625 0  0.1164218274003825 2.141070153397999 0  0.2696857594953064 2.135405441512016 0  2.164961300137334 0.1375322943529536 0  2.137757548369486 0.2724194778647587 0  2.238873711826398 0.3626419179496562 0  0.1001414910226386 0.234375 0  0.2176339285714286 0.3478422619047619 0  0.2503620791333544 0.1061694061057066 0  2.336445461915368 0.1250451055247424 0  0.2154004640409726 2.3918124
[...]
<PointData  Scalars="f_16-0"> 
<DataArray  type="Float64"  Name="f_16-0"  format="ascii">2.3081770631392829e-08  1.3007129889870983e-05  1.2363625570845891e-10  7.8343590793554831e-11  5.9852712753043993e-06  4.0405702551982072e-09  3.5996907971905676e-08  5.8272799989857866e-04  6.1185999677562111e-04  9.9109919550181532e-04  1.8131663902017732e-05  2.7807999013279478e-08  1.9956044302955510e-05  6.1297903554960380e-11  1.1501155605082709e-07  4.4340843696203682e-09  9.6077057535255815e-09  1.3853747713726665e-06  5.1115218643865783e-05  3.8248112890023380e-04  1.1194656558894283e-05  8.9469340966397148e-04  2.8503958385473356e-05  1.6303682330465060e-03  3.0869439246687518e-07  2.2778520548506518e-04  5.4112833067880307e-06  1.4038912569501500e-06  5.8497051820462917e-08  9.9995244823185156e-09  2.6646955003139657e-06  4.8646318733170819e-05  1.0649190046317155e-03  1.0207007147141098e-06  2.2042288591328038e-04  4.9184565120819108e-04  3.5221320634925057e-07  1.1879532010107339e-03  1.3915968770100389e-04  3.1866364287978734e-07  1.2862407615405914e-05  7.2463238723392369e-07  1.9048911256864744e-05  9.2021380866960515e-04  9.7785665840863063e-10  1.0928346258047786e-09  6.4474816153792941e-04  1.6021144709140644e-03  6.7762182794105843e-06  1.1890775100891103e-06  1.3224923225366801e-05  2.0803341556433602e-08  4.4773381538144189e-09  4.3192672839672471e-10  8.8523766990012537e-04  1.8541982411836080e-04  2.4171968131306865e-08  6.7956673908859505e-11  9.4203832171629345e-07  2.7142513922251565e-08  8.5076304974309413e-09  5.4342351063476482e-05  2.9539698503931805e-05  1.2316339120025335e-06  2.3804060256433560e-04  4.0713546285704167e-05  3.3414348645753383e-04  3.6943147436144794e-08  6.7462940612851312e-07  2.6414893252595683e-06  2.1293702919839377e-04  1.4417039900557706e-05  8.0512174672063913e-05  1.8068443273376790e-03  1.2141674040537083e-04  1.0009956724558453e-03  4.7999319126160890e-08  1.1023834237768865e-08  1.2475616094620786e-07  3.0792693214443784e-06  1.9462353631403526e-03  3.6089851005403468e-05  1.0673146923150642e-05  2.8316633560197047e-05  1.0419253686740845e-07  5.3408574847057981e-10  1.3056522708597555e-09  9.8218777525606254e-06  4.8793787681339348e-06  3.4829648138620844e-07  2.1838329156085768e-08  1.8040402993290138e-09  1.7775329161070267e-06  1.6791672774584079e-08  2.2496393806496278e-07  1.3303290522842593e-04  3.6727892380740228e-04  6.2372340335475155e-08  4.9528661909436421e-06  1.7487044544849648e-07  4.5206188351284799e-05  8.7958271592102392e-06  1.0045511537943385e-05  2.4660637492399801e-04  1.1389848108319598e-06  1.5658996807221290e-03  9.5804184532509830e-04  1.1373585605265455e-03  1.3091506496266758e-06  1.9506612835659743e-08  1.2460923255530788e-04  7.5950727084428600e-04  8.2909099180777598e-04  9.7891695009006481e-04  1.1229394744811621e-03  2.5564774908550317e-04  6.8604205462248252e-04  8.5063519394617702e-07  1.0399768111088971e-06  5.9318478169385466e-05  5.1529902029338718e-04  1.7717655725045298e-07  3.8497047419934549e-09  7.8882477600227202e-04  3.9306729163097834e-05  2.9641580994070102e-10  1.6370790948242626e-03  3.2657937879753959e-08  2.9086816503426748e-07  9.2227525223494752e-07  1.8416064099248915e-04  3.9520891864336047e-05  2.0322066269725766e-04  1.5365480071955081e-06  1.2661464118803308e-07  1.0427988837333037e-04  7.1276519860273793e-05  1.0146250393565758e-03  3.4509850506273231e-04  1.4109658440042182e-03  1.4881441415349160e-05  6.7499748181785796e-06  9.6390578768099395e-06  8.2562945636781336e-06  3.8221836685927192e-08  8.4737461834166468e-08  3.0569901209810167e-10  1.4514458799454064e-07  2.2733966319660829e-05  4.1277881286858073e-09  9.3579040882719498e-05  1.9687680612771367e-03  1.5875394949191342e-05  1.8557563593368245e-08  6.9342725012734704e-04  4.6122901082232238e-04  2.2798509440661156e-07  5.0884958867634498e-08  4.2236880493601465e-07  9.5289336484488983e-06  8.0813595233086329e-09  5.7926691904805547e-06  2.5472779872925066e-09  7.8838658895255661e-10  9.8353852177690831e-11  2.2423695673213410e-08  1.2523036899425270e-07  5.7715004371364220e-04  8.7005340049334506e-04  4.2156716210586668e-04  3.7171065407925357e-04  2.2557463561832069e-05  7.8877439853756435e-06  1.1109594520944077e-05  1.8394489074301416e-04  3.1172428464925437e-07  1.1209510996844051e-03  5.4320975954151819e-05  7.9245842249074129e-04  6.3901419763044297e-04  7.4465235494324217e-06  3.7946077102056543e-05  2.4708185432368106e-07  3.3892112698754515e-08  2.3675067085493742e-08  2.2435433680999836e-08  7.2185244154615208e-09  2.9740708602098224e-08  1.2821195203663713e-10  1.5724758820418895e-09  2.6354228443545457e-08  5.3387113273995917e-11  2.7816079063287554e-06  2.0054226448666301e-05  9.9140798607950812e-04  3.7579434141384044e-04  7.2104098077759997e-05  5.2986851823683700e-06  7.2881673413629995e-09  2.2069634198938131e-09  2.5618683279174023e-06  1.8593731370845730e-04  1.4037458729094006e-09  2.1080954917182991e-05  1.1038716543456772e-04  4.8740999821201997e-05  1.2203865050988291e-05  2.0400347726500625e-06  1.2347196628552693e-04  1.0815283839354715e-03  3.2193062121912443e-06  1.1236092277431433e-06  1.6602053939633191e-05  1.6141114303424978e-07  3.8084972130624551e-06  1.7488218078480508e-03  2.3904558468952945e-08  1.4909550158647401e-04  3.7688037470218056e-06  9.8183681420383201e-08  5.6671302284773982e-06  1.3142631908715169e-07  1.8452878813592599e-07  1.8648018470651450e-08  9.2526529726018572e-07  1.9198163867170779e-06  1.5054812134633399e-06  3.0667645810913573e-04  3.4550222554495882e-05  7.5430952841770696e-07  8.5556109591693576e-04  3.9344176805030623e-08  3.3085065364586298e-09  1.8002426875377668e-04  1.8435051152838691e-05  1.2892789159483588e-07  1.1513642052319613e-05  6.2492375603416910e-05  3.3376173844238023e-06  3.0313069323305509e-07  3.2595781298422750e-05  1.0103369700565468e-05  3.3946581095242769e-05  1.3680574824244952e-04  2.7578382930341033e-04  4.6923084411225243e-04  4.0009793890289573e-04  1.6333277083681396e-05  1.0621784606872336e-03  2.7928057555611089e-06  2.4772147876756295e-08  4.4605737219874263e-08  5.2199868831947203e-04  1.6262465529892673e-03  4.1919908284174901e-04  8.0983442753119859e-05  2.1669820090442411e-03  1.3856872267600092e-03  2.9589193607252375e-04  5.5009089658237183e-07  2.8835709106367227e-06  1.0595528777812583e-04  9.2054325969102835e-04  3.2250656524962524e-07  4.9797075853475298e-06  3.0121173767603453e-06  1.7459310103759794e-06  1.2297745264410488e-03  6.5427957041143446e-04  6.0554623906355615e-07  1.0434439092520078e-07  1.2314668703024974e-05  2.6438012951355845e-05  2.2067050238662366e-05  7.9836928942483506e-04  2.7102494181936403e-05  7.5232201759751214e-05  1.0962330488368802e-04  6.1240404588438721e-04  5.6341601099499868e-05  1.4945242913841437e-04  1.8738729150629800e-05  3.0418043747406222e-07  4.4197530053871495e-07  3.3046352485015546e-07  1.4148349983669269e-07  1.4448343650267566e-08  3.6288952891036229e-06  2.3073786878593608e-10  2.6348109708723282e-10  3.9733557238311026e-07  1.7329460771957804e-06  1.8279681409457637e-06  5.1746285627773405e-09  6.4468173374391551e-09  1.9070478614315766e-09  4.3666456084166640e-03  2.7353269767440343e-03  1.0445243068462533e-04  6.3760550980335372e-10  7.6539449888475975e-08  9.1770241952157844e-07  1.9959255153650335e-04  3.8955140174708337e-07  1.5260436903271032e-04  1.3158416988815093e-05  1.6392216672215029e-05  8.1453430972432015e-06  7.2767449152766713e-05  1.1297639874627791e-03  1.1790712983590479e-05  6.1061062405616543e-08  3.3000443887635644e-10  5.4424710611190754e-10  2.2494865741452002e-09  9.9969651714929691e-04  1.7747460661305523e-05  1.8975109125828881e-05  2.6887721025196121e-05  4.5504127193117829e-07  1.5975012291402258e-04  1.3961736695507724e-07  1.2871607257609440e-03  9.9144677313013995e-05  6.4673030615471755e-05  7.5824292221973926e-09  1.4881895188685571e-05  6.8222230367531739e-08  2.8493850598793179e-06  7.0182004931853615e-04  3.2130437687802539e-09  9.8620503986872224e-04  6.1728837009152157e-04  9.6640426503016992e-07  8.2701796874851459e-07  3.6618319405198847e-08  8.4568303616026079e-08  2.9551255878249667e-04  4.8001057535988930e-04  2.0224303209066820e-08  1.7004083936947737e-07  1.2889568460273280e-03  7.1366946887318545e-07  7.6838561978229345e-06  3.2410171977021107e-07  2.1358407165495542e-07  2.1713479922040012e-08  3.0598737607010157e-06  3.0531034592489012e-04  7.2976262083918282e-08  7.8044087558179259e-04  1.1742447294265216e-03  1.9636440382083116e-03  1.5482453759963865e-03  7.7724504520891123e-07  1.2216553299643703e-04  6.6742484413972146e-04  1.5119987847100715e-08  7.4119072118390257e-09  8.0435520628396815e-08  6.7894406720025362e-08  2.8592101816047504e-10  4.3057887004144088e-06  8.6943662937725734e-07  1.0077442861224489e-05  4.1390082172200119e-09  1.6068433567240272e-06  1.2530434153113462e-06  4.0762146607472917e-06  1.7058844333732032e-05  4.1998490197427070e-04  2.8278532289486771e-04  6.0422975613677132e-04  4.4568439028696950e-08  9.2802267393455126e-05  1.0144549521229759e-03  4.8598603229657350e-04  6.8158540116091378e-08  1.4315762392615612e-03  8.0483140327843180e-04  1.3948721892165776e-03  1.0508359274913244e-03  1.6810851792899650e-07  6.6376212546753939e-04  6.8950019925562714e-05  2.7202637131270864e-04  1.2943873098040753e-05  2.7827069437459408e-06  1.4233826230719279e-08  2.7787939745358976e-04  9.2689610148404582e-06  8.6508580586439770e-05  6.4404067951366668e-07  9.3514526184905792e-04  1.3427423621941614e-03  1.0855576088857548e-07  2.4049190315952388e-04  7.5527339835137696e-07  9.0387937910576523e-08  6.1791347506715661e-04  1.0792717634417824e-03  8.4777145352300299e-04  2.2688526365439960e-06  2.3773981918664296e-07  2.7094706789890715e-04  7.1057334044229221e-07  1.0399551765572211e-07  1.8597621344567034e-04  1.5544503054307872e-03  2.8334236640800607e-10  7.7782062567512703e-05  1.4449457963542202e-04  3.4707932292288909e-04  3.1173167282847958e-09  7.5739500567905663e-05  1.8747446837642139e-04  2.4673579753500011e-05  1.7974303506614825e-03  9.6663271835674771e-04  2.4646149534266156e-08  7.1565575175149996e-04  1.4564427893869610e-05  3.8788530943825893e-06  5.7480018309870709e-07  4.2938017300240086e-04  6.1166337646090436e-04  2.4774327216317542e-05  1.7824815387801679e-05  2.9005502063926309e-06  7.6472748503118439e-07  1.6950686400542001e-05  3.7903120232981257e-04  5.7886354653706935e-08  2.6996450623159962e-07  1.9652513338612602e-08  6.0810745459289787e-06  6.8858553771941965e-06  3.0624585888407709e-06  4.0685548743442612e-06  1.6874836667291687e-05  1.3497804978156003e-09  6.7313456255097733e-05  9.3582306966131699e-04  1.7254516243376607e-07  9.1965374330960581e-10  1.5130491080136705e-03  3.9377224071431371e-05  2.3017668766808513e-05  1.6131496160617036e-05  1.9614794208206091e-09  1.3863866170833923e-04  7.5635264518653686e-04  7.4331112328982000e-07  1.3506360977339137e-08  1.1762645070392126e-08  2.4524324276687679e-08  4.0018917659857172e-04  1.4751911017682074e-03  6.1302886612780722e-04  9.5806749879507669e-04  5.7091137913982182e-05  3.1262831457293849e-06  5.3187205944416874e-04  1.0813984826709402e-08  1.5210684626326378e-08  3.9802153166502708e-04  4.0241339010540132e-07  1.0399631971579435e-03  1.6521038078079358e-06  1.1794208789029468e-03  5.1080643067254318e-08  1.2764549491089304e-04  2.6150034194720358e-04  8.8839331430015808e-06  5.0514459097498868e-06  4.4593069626698280e-06  6.3826177642214058e-05  3.5146189853254535e-05  1.7594519688389197e-04  4.3444449431796743e-05  2.0631650370463018e-08  4.8249392506643728e-08  1.1888013625779854e-08  3.2632402368703050e-07  7.3520139365903733e-04  2.3455004544629558e-08  4.9066045829714207e-04  1.0541811090133241e-05  8.7022778799389605e-04  1.7307322929114575e-06  2.5193974415132949e-04  2.8422012059488460e-06  9.9173544454440777e-07  7.0207328728930294e-05  2.2708674431831908e-10  7.8538366517559725e-08  6.8101996920628259e-06  3.4926491132384131e-07  1.6882603153208895e-05  1.0823988463050650e-07  5.3171982449292641e-08  7.2391510784565677e-05  6.8897260950192738e-04  2.0529478139457145e-05  5.0802370570280622e-11  1.6589200760836853e-10  7.6042872957685533e-08  1.3197373170383374e-05  3.0509553861234869e-05  4.3568749168930214e-05  5.5581301068079720e-06  1.0600089918153701e-08  2.4107607631660165e-05  3.3515515806528811e-06  1.4017893162635432e-04  9.3474031653004803e-04  2.6813301272671730e-06  3.9344747523932817e-05  8.3761944260250614e-06  5.4938614560654101e-08  6.8861669662150922e-08  9.5480610725418219e-06  2.3806688992414031e-05  4.7668785753784770e-04  2.4251750689625028e-09  8.2705721476021853e-07  2.1522482559768723e-05  2.0359315077469811e-05  8.0268431876877086e-06  6.6712312311368747e-06  5.1952241653776938e-06  4.1262388319667046e-07  1.2554433691100554e-08  6.8264858188325959e-06  8.6863113361445789e-11  1.6285054620601676e-07  6.1237321885952874e-08  8.0849742143257394e-07  1.2112505986546621e-08  4.4795654181145839e-08  1.8953604921641325e-08  1.1608853464493032e-10  2.0646370622914281e-06  8.2784971218045217e-09  7.5221227234408472e-04  7.7419428966978812e-04  3.4933108358049732e-05  3.9513208179407253e-07  4.6418186845593255e-08  5.5951241683797480e-05  2.6691949607631293e-09  1.3129403059788503e-08  1.6747009712605868e-04  1.6141837390833301e-04  7.0695304298266669e-10  9.4912180100274379e-07  7.2757245509861093e-05  5.8560190985442266e-05  3.1918138866440608e-06  3.2190480489468993e-07  1.8788905073208339e-09  2.0666054916543323e-03  2.4157177889237843e-03  1.6943923276907763e-03  3.6260320890569747e-05  2.2241128868837534e-10  2.6706535266006857e-05  9.2522291071527529e-04  2.1120347181307878e-10  1.7860604027660469e-07  1.6801765461441680e-06  1.1208469879007308e-06  2.4628559150896953e-06  7.7525713795498076e-10  1.2300575586225522e-04  1.1783826688331591e-07  4.8169665372810743e-09  1.0103280926856211e-03  2.1536710661591743e-04  1.1325379833937418e-04  1.0902874545682566e-07  9.1452730132984619e-10  5.2236625081814827e-05  7.9087301072839782e-06  3.5237346296244476e-05  1.0090902522047389e-05  3.2189879702990441e-09  5.0769733990193818e-04  8.7753395133557130e-04  4.7964908836243961e-04  2.6688031832214639e-05  5.2283394047614260e-04  4.6042330650789020e-04  3.1298688649836663e-05  2.0675734947832676e-07  1.8220750892627912e-06  6.9417791244155052e-04  4.2309353780315160e-04  1.8805542300276087e-04  1.8935451190498273e-05  4.0166434100382940e-05  9.4403497878725042e-04  2.7547883921293228e-04  4.3227352125538174e-09  8.3311567872065527e-10  3.8249894976985949e-04  4.3915877364823970e-04  3.2490371553661464e-04  3.1800902602586621e-04  2.7261953534621210e-03  9.6844864635706477e-06  3.9710218431868172e-08  1.1660427751979442e-05  1.2789245870609986e-07  1.5218281270120802e-09  2.1722546450886291e-08  1.3570218173878769e-05  3.7223184833104113e-08  5.0226796359220433e-04  7.5484968934482902e-07  3.7534978543174425e-05  5.1964464611129900e-07  2.3253531538718613e-07  1.2589679477805228e-05  2.1111559837691730e-05  2.7911467189077973e-07  4.1637281099078557e-06  3.8200401048292492e-09  2.4261645028252335e-03  2.1133680395542227e-06  1.1750054168015666e-10  1.2322497852832724e-03  1.4884657898693394e-03  1.5668768477667528e-05  1.9859926899530918e-06  1.6738422094051132e-04  1.7999157665487320e-05  6.8664406797419894e-09  3.3756315937088577e-05  3.1003666001282865e-09  1.9832400545486131e-08  1.2790799765886391e-05  2.8828988311011613e-07  1.8569762860734089e-03  9.0200473943324362e-05  1.5660976725373983e-06  4.6332875153600016e-06  3.2310225729195163e-05  3.3051029864210998e-07  3.8966868581815115e-07  8.5769843435024295e-05  9.0558977743560086e-04  4.8400992468190886e-05  5.4240702780867153e-06  4.9201287378198908e-08  1.0660425659711658e-08  2.0765683880240234e-06  5.8064677825133023e-04  7.3925344877621185e-08  2.0694704133390430e-08  7.6834846427605418e-06  5.3801279578077509e-10  2.4506334802918166e-08  2.2100077491366364e-09  5.0973056444248942e-08  2.3933008895539178e-08  3.3097259794663496e-08  1.2200572938165767e-04  2.5845485679524926e-08  8.7947261438882469e-09  2.1020101923050520e-07  7.3336714742424109e-07  2.6077473617632861e-09  5.4900566187877480e-09  8.1377746791908861e-09  8.2830511790509280e-04  6.7277672845036322e-04  4.8591354686146652e-04  3.3463485397495951e-08  9.8292458019616589e-04  1.4595613215285419e-05  5.7223456143804240e-08  1.1052089569548727e-05  2.1537565289178948e-08  1.5334888481748774e-05  3.3785554321000611e-07  7.8059979314964095e-11  1.9278922527516069e-05  1.9413202858659054e-06  7.7193924042015527e-04  9.7595569008611101e-04  1.3944845950966976e-08  5.4025041576944274e-10  1.5064205846251977e-10  1.3969589219961634e-10  2.6459490507152835e-04  2.8268878266304344e-08  9.9373514914000496e-04  6.2033403505191199e-09  1.5930136637274531e-09  5.9023789798061777e-11  3.3902385346585629e-07  1.2780202799877305e-06  1.8935256559695932e-04  5.4012829707481222e-08  8.6415202546146293e-06  9.0062704294480032e-08  1.2903772372968847e-03  1.7876330954277547e-03  1.7741504843525489e-03  1.3404999287058209e-07  2.2349463479702926e-05  1.4550054444186786e-03  1.0041960063752831e-03  6.0184720805672389e-06  8.0788352720034937e-04  7.1463791984719563e-05  3.4473108539887063e-06  2.8102535789692110e-04  1.9280879859963628e-04  1.3452719575226434e-04  4.6394216488468263e-04  1.0378301174470367e-03  1.2906790534687605e-03  6.0159720813900586e-08  1.6878481843150832e-05  1.5167441490020839e-05  3.3446457060543538e-07  1.6689139467205823e-03  2.0117591119515337e-08  2.1237303054962812e-04  5.8192266127742411e-06  9.6922393218678259e-04  9.7074681795975687e-04  2.4509211725417949e-04  8.6755996837541746e-06  4.2823829125458667e-06  1.2587482061187998e-03  1.1586046155057034e-03  6.7224809320848752e-08  1.7247094713593080e-08  1.3384058320502856e-03  3.7946849628940880e-08  5.5851905211420246e-09  3.7294103382176744e-04  3.3835586032153865e-05  6.4167433305574548e-04  3.7526493621341210e-05  7.9900517190600894e-04  1.8467465924277916e-07  8.9462805103900423e-05  6.4278603756983546e-05  1.6840918969564153e-06  7.4018257958961690e-06  4.9546012444153983e-06  1.8756385459370053e-06  1.9804646801206778e-06  1.5187112991844611e-06  3.7609320015259310e-04  6.1402677754611561e-06  4.4623129316671652e-05  1.1522501727200129e-04  2.3219669242172939e-05  1.7036647614523109e-05  1.7666964650017374e-07  1.2441574029138186e-04  4.6586646118607212e-07  1.8072845873305812e-07  3.8105877354683208e-06  1.0594767507061946e-05  1.5993808272432878e-04  1.2955639483642464e-04  6.9489627644997158e-05  7.3750102631689408e-04  4.2529874723485113e-09  5.8310759327849913e-07  5.2665840284371444e-07  7.3470439343501006e-07  1.1410623176378704e-06  4.7448437722295256e-07  2.3225057083343265e-07  1.1548969743003647e-04  2.4815566893188512e-06  2.4098019554147894e-07  7.0220076142441917e-10  4.0892241010870217e-07  1.0047017826638990e-04  3.7381492009223632e-04  6.1566213439153577e-04  1.0211902565306346e-04  3.0295191004677983e-08  1.1296776151820951e-03  4.3653106509150055e-06  1.1329654402124899e-07  1.4092034066075794e-03  8.1348717248085338e-08  1.6291598290274415e-07  1.3161891836855238e-07  7.1100475164084765e-09  2.1157927801386778e-08  4.7309981271387777e-08  3.0600986724160610e-04  1.4491306796356768e-04  3.6597523472840028e-04  4.9910881226668605e-04  5.2167573222923760e-06  1.9525663502698264e-06  3.0044309982661795e-05  6.1476918587835934e-10  1.6889946159633003e-05  2.0252935935487446e-04  3.1561025992710428e-04  4.0196820244821764e-04  3.2006209930225753e-07  5.6117945762159596e-08  5.2662799047555313e-08  3.9901876336971341e-08  9.6101531219491438e-08  1.1697844883277833e-09  7.8584321624344052e-09  2.1945021196626911e-06  1.2042515090209010e-06  3.1712427916338282e-09  1.1446767880440593e-08  8.4524417323158661e-06  2.8754096392378508e-07  7.0507294742996128e-07  1.5127612673545226e-06  2.3458146324263385e-07  3.1983767188579