<?xml version="1.0"?>
<VTKFile type="UnstructuredGrid"  version="0.1"  >
<UnstructuredGrid>
<Piece  NumberOfPoints="6486" NumberOfCells="12696">
<Points>
<DataArray  type="Float64"  NumberOfComponents="3"  format="ascii">0 2.5 0  0 0 0  2.5 0 0  2.5 2.5 0  1.25 0 0  2.5 1.25 0  1.25 2.5 0  0 1.25 0  1.25 1.25 0  0 0.625 0  0.625 0 0  0.625 2.5 0  0 1.875 0  2.5 0.625 0  1.875 0 0  2.5 1.875 0  1.875 2.5 0  1.770833333333333 0.7291666666666666 0  0.7291666666666666 1.770833333333333 0  0.9375 0.625 0  1.875 1.5625 0  0.642361111111111 1.163194444444444 0  1.341594827586207 1.883979885057471 0  0.46875 0.46875 0  2.03125 2.03125 0  0.3626104797979798 1.513178661616162 0  1.381740196078431 0.4564950980392157 0  0.9375 2.172619047619047 0  2.172619047619047 0.9375 0  2.096354166666667 0.4036458333333332 0  0.4036458333333333 2.096354166666667 0  1.684027777777778 1.163194444444444 0  0.3418803418803419 0.8693910256410255 0  1.642742622813391 2.162164207604464 0  1.275619849389031 0.8465650753054845 0  0.9136284722222221 1.434461805555556 0  1.732437511238546 0.3406962303960658 0  0.9714402568595876 1.029779313093998 0  1.52281746031746 1.485615079365079 0  2.1875 1.71875 0  1.06819722569879 0.2997236128493951 0  2.136114211309524 1.303478422619048 0  0.3125 0 0  0 0.3125 0  2.5 2.1875 0  2.1875 2.5 0  0.3200021620376328 1.192323085056694 0  0.6738456129277992 0.8304377375553881 0  1.757891808928991 1.861952730357003 0  1.5625 0 0  0.9375 0 0  0.3125 2.5 0  2.1875 0 0  2.5 0.9375 0  0 0.9375 0  0 1.5625 0  0.9375 2.5 0  2.5 0.3125 0  0 2.1875 0  1.5625 2.5 0  2.5 1.5625 0  0.7448220909826522 0.3003573636608841 0  1.027298850574712 1.871151477832512 0  1.331260495098891 2.197262878816185 0  1.207917681892289 1.582765010956622 0  0.4339993447432606 1.801186844743261 0  0.6337298768939392 1.443093039772727 0  2.049851190476191 0.6826636904761904 0  0.6584821428571428 2.219122023809524 0  1.89575676467455 0.9798457973793544 0  1.437570562095628 1.059380588255917 0  1.502090052505845 0.6987070896496241 0  0.2040860661083546 1.705323965099331 0  0.2083333333333333 0.46875 0  0.5070952039991439 0.2211150679997147 0  0.6916302856529919 0.5813591430410241 0  2.265625 1.953125 0  2.2265625 2.2265625 0  1.886424081252096 2.243391360417365 0  1.40625 0.202164758520858 0  0.2269345238095238 0.2269345238095238 0  1.152730869673694 0.5225850378741401 0  1.885631899587912 1.312095130148776 0  1.614808884009367 0.9049784971014416 0  1.890095442220658 0.5126535558463003 0  2.323168682795699 0.46875 0  2.268811725689575 0.2304742875213018 0  0.6002389442105756 1.967426444210576 0  0.1768313172043011 2.03125 0  0.2311882743104251 2.269525712478698 0  2.03125 0.176831317204301 0  2.280262553344767 0.6954945504579233 0  1.979219539285994 1.809922269642997 0  2.336309523809524 1.09375 0  1.09375 2.336309523809524 0  0.9314042474388009 1.662973812215543 0  0.1634067999087722 1.40625 0  2.337090640094896 1.40625 0  1.141616997467638 2.069311773587991 0  0.46875 2.338939559681489 0  1.542440307908715 1.734944797244472 0  1.556713687786879 1.956977865354753 0  0.8264238995344066 1.975424467820646 0  1.466326331454725 1.275271369760862 0  1.655675324257095 0.5444159974393489 0  0.3385416666666666 0.6479255698005697 0  0 0.78125 0  0.5236073939200119 0.984090461540625 0  2.091665741047893 1.519793517904215 0  1.71875 2.5 0  0.5356538886262603 1.623137930505009 0  0 1.09375 0  0.1932884281517095 1.015625 0  0.8569313582417669 1.2198915584249 0  0.8876981284879677 0.8329884081524883 0  1.115618488474214 0.7219586973356271 0  1.186950366204949 1.043465130075318 0  2.057459118787237 1.110823087309335 0  1.830651283878689 2.049810069572418 0  1.689107969301489 1.367247437031697 0  0.4921048768039656 1.298643370653124 0  0.8213975694444444 2.336309523809524 0  2.03125 2.5 0  1.049729400480002 1.283723261332814 0  1.308101375801673 0.6489479469700392 0  2.5 2.34375 0  0.4968777175037714 0.7562964879736076 0  1.40625 2.5 0  1.501347663534097 2.307027627307738 0  1.602813712048603 0.1926218191360736 0  0.8393082906308107 0.463778306132633 0  1.682663349152719 1.598471865581041 0  0.7774174680851571 1.560004941327907 0  1.554204170364662 0.3898593897892066 0  1.842184459051087 0.186443880058197 0  1.358107417651776 1.696381759610015 0  1.18859291992392 1.77598670078022 0  0.1875331222687418 0.7609599743339348 0  1.339536743965101 1.422080365801479 0  0.7788179348750389 0.9955343414928611 0  0.9062978492805438 0.1919636509126373 0  1.256007360640958 0.3160320559396114 0  1.09375 0 0  1.174986727221844 0.1594990293443933 0  2.34375 1.796875 0  2.318026474511116 1.589177949022232 0  2.34375 2.5 0  1.672742954892153 2.332882724550692 0  0.2683637361947215 1.874801596909639 0  2.174770749820102 0.5581009131310781 0  1.443279522965991 0.8870068372898454 0  0.3385416666666667 0.3571428571428572 0  0.78125 0 0  2.060421048269335 2.314363248763811 0  1.088078737088509 0.8967352118723447 0  1.087825368444708 1.454931510884769 0  2.018308232129541 0.8548495425854904 0  1.943987311736842 0.3246298523011434 0  1.71875 0 0  1.85337849796276 1.144833312386208 0  2.3486328125 2.1044921875 0  1.407588788651747 2.042968789119587 0  2.336309523809524 0.865366648092144 0  2.34375 0 0  2.5 0.15625 0  0.15625 2.5 0  0 2.34375 0  0.1638044648294291 1.242263417405867 0  0.356216654757926 1.032569427322806 0  0.3188217956111817 1.355736727000647 0  0.5924956460852111 0.36112522004736 0  0.6594216488965849 0.1603472116132387 0  1.841804599497131 1.72214349266521 0  0.15625 0 0  0 0.15625 0  2.115898634821499 1.894570904464496 0  0.7821877980253907 0.7129993435924866 0  1.003820447087786 0.4516053462784233 0  0.477562948779147 1.138333049293613 0  0.719493678605015 1.305655360135975 0  0.9772457618587566 2.020350128938537 0  0.8764738248887107 1.826219722709673 0  1.254787875123819 2.339010653832026 0  2.343597354852534 1.249982759769001 0  0.78125 2.5 0  0.46875 2.5 0  2.5 1.40625 0  1.09375 2.5 0  2.5 0.78125 0  2.5 1.09375 0  2.03125 0 0  2.5 0.46875 0  1.40625 0 0  0.46875 0 0  0 0.46875 0  0 1.40625 0  0 1.71875 0  0 2.03125 0  2.5 1.71875 0  2.5 2.03125 0  2.005424054645407 1.653223486966518 0  0.1538730573856537 1.559850281736677 0  2.33984375 2.33984375 0  1.166539506212474 1.922878979538754 0  0.3914885633949916 1.65887232812171 0  0.5795503163042564 1.766243562569382 0  0.399533125920212 1.946786875081388 0  0.7866324979014098 2.127719094551316 0  0.3654683023546834 0.1495701132219454 0  0.1527388747131078 0.6116379440619215 0  2.013737577140188 1.391056634712135 0  1.17635437372994 2.213329084238133 0  1.737118141866284 1.010577140843115 0  2.200707118087222 1.164723314085963 0  1.697018908736685 1.993548551451517 0  0.5387621649009668 0.6070503962352419 0  2.032805785855952 0.5330427622570983 0  1.082699501358059 1.667818725183932 0  1.503819781540653 0.5468420196858188 0  2.015409142866072 2.175941657590429 0  1.752057611265444 0.869642097111018 0  0.612251684107783 2.356045720700959 0  1.902817102342857 0.6607642211999982 0  2.159616561739693 0.7867739969338844 0  0.5120038350106624 2.197302352398502 0  1.888200216011548 1.919501662489862 0  1.495909909726654 2.16028358757309 0  0.489139876703609 1.443203008943564 0  0.8819175670410521 0.3301172743913011 0  1.882591144370812 0.8155965192707721 0  1.133979796994841 1.172526771862882 0  2.206217447916667 2.084147135416667 0  2.20361328125 2.36279296875 0  1.395746985657004 1.556054166359645 0  1.704383111516207 1.734750450338683 0  0.9575737847222222 2.36274223823052 0  1.035150984253136 0.1302833343179028 0  1.383966125325753 0.7651479963479179 0  1.64003252158672 0.6824316405528895 0  2.22550785055421 1.487078576356817 0  1.760964431499756 1.48495222505201 0  1.276460980673788 2.004207003584658 0  0.1341477688427096 1.828777507920502 0  1.542261434180652 1.155296658359034 0  1.334627911613854 0.9696897472490321 0  1.30794231473696 1.119420615785191 0  0.7028260459857245 0.4438906910721139 0  1.625757433094055 1.84268057552138 0  0.9818707849053143 1.165603626132254 0  2.0086489901463 1.243134585689553 0  1.934584460420609 2.374094051915812 0  1.798434376789567 2.38671361912528 0  1.206314791201715 1.382064292497919 0  0.6333752893366955 0.7023738550008095 0  0.7796219811205605 1.42573253164258 0  1.564399711917382 1.026040828857629 0  0.3385416666666666 0.4889012896825397 0  0.1041666666666667 0.390625 0  0.989112246382566 1.543537365516289 0  2.025724425454636 0.9846960595520872 0  0.6602885475034063 2.086117390485779 0  1.607130551925032 1.267198646640915 0  0.1317864544877056 0.8896173683400176 0  1.755387840017567 2.230364320056445 0  1.301540702984401 0.1216289692748247 0  1.433170657577442 0.3331052752740999 0  1.500459610550388 0.113513924782439 0  0.6494291520606965 1.029586599619295 0  1.010146149868299 0.794897284196169 0  0.3700844198238017 2.235390157870766 0  0.3360891767780704 2.36656279435396 0  1.876856241037701 1.437150669863757 0  1.778674102957329 1.245979347269706 0  0.5472829890977179 0.1005517127039925 0  0.4669074189005698 0.3416784232954367 0  1.472765289289269 1.850899166481903 0  1.555853593327178 1.608452097912802 0  0.6708955559113426 1.646561631116984 0  0.8164699620322933 0.5924479455478063 0  0.3167738989468366 1.758696809749795 0  0.2788007305565096 1.605499483471246 0  0.7821720982350511 0.181524936294752 0  1.376812251214195 2.313340247908297 0  1.785652202614777 0.5962261755537186 0  1.761467296310972 0.4679567244718574 0  2.2265625 1.8359375 0  2.3828125 1.9140625 0  0.5279531607054191 2.071552361614785 0  2.397573269551114 0.234375 0  2.383578172599618 0.3589298466020009 0  0.1024267304488855 2.265625 0  0.1164218274003825 2.141070153397999 0  0.2696857594953064 2.135405441512016 0  2.164961300137334 0.1375322943529536 0  2.137757548369486 0.2724194778647587 0  2.238873711826398 0.3626419179496562 0  0.1001414910226386 0.234375 0  0.2176339285714286 0.3478422619047619 0  0.2503620791333544 0.1061694061057066 0  2.336445461915368 0.1250451055247424 0  0.2154004640409726 2.3918124
[...]
<PointData  Scalars="f_124-0"> 
<DataArray  type="Float64"  Name="f_124-0"  format="ascii">4.2086253692896538e-06  1.2725496819377247e-01  7.6825593639898561e-07  5.7267403592934781e-09  2.0902715675790152e-02  6.0408572427764507e-07  3.7808361181383821e-06  4.2596595647866886e-02  2.1713304114826817e-02  1.1527293979302394e-01  8.8802598960645587e-02  5.0343798104961333e-06  1.9185998218694672e-03  3.4068118809394069e-07  4.6488613200161468e-04  3.0176314006459731e-07  5.9698045799251298e-07  1.1652839793595896e-03  4.0608761312049043e-03  5.8867397827588708e-02  4.7294373170297152e-04  5.0408296675832305e-02  1.1872504619227851e-03  1.1616625973154307e-01  1.4751233933536704e-05  1.7036690930397003e-02  1.3314497514884515e-02  1.4671342136925541e-04  2.5228351558523141e-05  4.6380546521611705e-05  3.1766475565802368e-04  2.8841075711692806e-03  8.6408371483399804e-02  4.8853802752085658e-05  2.3611854701900335e-02  2.1818277989409756e-02  1.3089113885414265e-03  5.1037530913778655e-02  4.7614713660462157e-03  1.6982537036155056e-05  4.0330199479630284e-02  5.4891486784602224e-05  1.2274483796157541e-01  1.4032405360042000e-01  6.5865998304495766e-08  7.0777910674455984e-08  4.7220951462002676e-02  8.2902068674867616e-02  2.6695983459743521e-04  4.2139482959678608e-03  5.3008355071640097e-02  3.8440574031961651e-06  2.2252121206480965e-05  3.8962711307095694e-07  7.5462673238513536e-02  1.4140662242975926e-02  3.9957204636004633e-06  4.3666616924224050e-07  1.2354049524209692e-04  1.9632311260382848e-06  6.7571832935600609e-07  7.7603877131841859e-02  1.8013064399686370e-03  7.7271389684412532e-05  8.4936195390686760e-03  3.6435991281310227e-03  2.1857728565147512e-02  8.1625044694489854e-05  9.1339941203658699e-05  4.5382832804828903e-04  1.2783352851664043e-02  7.4158637743785743e-03  6.6870410718716418e-03  1.3362753266570954e-01  1.0533667958052279e-01  8.9846166818187856e-02  2.6733897966875065e-06  6.3286617013007102e-07  6.3713408686550054e-06  1.0589447946215108e-02  1.3797620101597299e-01  3.2859531703736330e-02  5.9136513320638608e-04  4.2570527568319347e-03  3.6635867129746668e-04  2.9495721712107423e-06  7.0065894167702677e-06  1.0159942569816064e-03  5.4424119139340112e-04  5.0364816731640869e-05  9.8158966137512296e-05  5.6843805466680486e-06  7.8722836793145934e-05  3.6412325057058110e-06  2.3827574041994200e-05  7.1816157940466250e-03  2.6678484190924154e-02  5.0287326836793923e-06  3.3625135146038144e-04  2.6859807190054477e-05  1.5975511587352519e-03  3.5797044886903752e-04  9.2355248056142931e-04  9.5756398471457671e-03  2.7765627519669351e-03  1.1208049777386869e-01  9.3468195687125263e-02  7.1652744322719508e-02  7.1078828155988040e-05  1.2644744159134570e-06  9.6883041701385786e-03  5.8654610843692813e-02  6.6729430793712047e-02  4.1770164931763248e-02  6.5113603888572333e-02  3.8706037611960266e-02  3.1704818456578791e-02  1.0104285615537792e-04  4.6043709070437219e-05  2.4812211876224567e-03  3.5377321844985682e-02  2.5917619403710776e-05  2.3976708446272822e-07  2.8253934368159189e-02  1.9077690825186244e-02  2.0663740451501309e-08  9.7086917781353491e-02  2.8248991866869675e-06  1.7681896076410815e-05  3.3017322424746874e-03  6.8628640091855375e-02  1.4409763931444593e-03  1.2501619195509774e-02  5.0699036643177039e-03  5.0752679172575983e-04  3.6848295520008254e-03  3.0756657524917104e-03  9.8498776188501169e-02  1.1414925948127983e-02  6.5094156262832076e-02  5.7259390025032476e-02  2.2013304399724060e-02  3.5422583371599196e-02  2.9463733857090803e-02  2.3081315904557177e-06  5.5173909448396164e-06  2.0878597115520972e-08  8.1198122818032953e-06  2.1663472229548454e-03  1.8169366980751941e-05  1.1339276979357004e-02  1.3297052930973369e-01  7.0074573445123661e-02  1.0369773294243519e-06  4.3094751094477392e-02  1.6834993994647367e-02  1.2673450694246778e-04  2.1470104306003254e-04  1.5773864412415002e-03  7.4959671108781759e-04  4.8643125320181183e-07  2.7452898928126749e-04  2.9246731315078566e-06  4.3745088841902273e-06  6.2048899293407396e-07  4.1030672238615959e-06  1.9668007798909852e-05  4.2121069838095014e-02  6.6731332577038421e-02  3.0412246895074324e-02  9.7517823892903407e-02  8.5976744428719956e-02  3.1663404160829612e-04  1.3322387048398790e-01  1.3373178158339794e-01  1.5402196779209121e-05  7.7470637193079062e-02  4.8122300591462525e-02  5.4454360619344763e-02  3.4527890435728369e-02  6.0505905922133229e-04  2.7220114504652700e-03  2.0941623089507959e-05  4.0601637449267077e-06  4.2615339599923430e-06  4.1100919833626318e-06  7.1880747243167648e-07  3.9446896220874972e-06  3.9023824683310076e-07  4.9940598890609248e-07  1.1707962242794840e-04  3.4304037225392937e-07  9.6071359568347670e-03  1.0852226498407035e-01  1.3331663888737627e-01  2.7289295406322134e-02  6.0519165917984029e-03  5.8649636676832658e-04  5.2410619412108083e-07  1.4714095536485434e-07  1.1790667553405120e-04  1.4180573302428230e-02  8.9305497741814919e-08  1.1180336663406548e-03  8.8685957419663754e-03  4.2059697629524429e-03  1.2452785392343818e-03  2.3496810568323663e-04  1.2148972727361711e-01  1.1688536264048967e-01  1.8324610284709567e-04  8.9029896739685292e-05  1.8108107239739228e-03  2.0953282214912275e-05  1.5755935136277962e-04  1.0491456983955419e-01  9.4806095228298974e-05  6.5179955179921764e-03  6.9620817308678126e-03  4.9762747218182002e-06  1.5239889030939310e-03  2.0770487951901858e-05  3.6520923068405998e-04  2.5754693497559754e-05  1.2233304832551893e-04  8.2066530317631439e-05  7.6948679044892360e-05  2.1936304784675939e-02  6.0589429573290131e-02  4.1661673553164619e-04  3.1786543355166383e-02  2.1362388958056869e-06  2.0101224699459201e-07  5.9670767539757204e-03  6.8516921364492273e-04  1.7337185371151917e-05  4.3685218402770690e-02  1.4517587802915226e-02  2.9860418470405445e-03  1.9542608885040393e-05  1.3045216043728915e-03  5.1818900320894294e-04  3.0907593624504601e-03  7.1026461806913549e-03  1.9556743849354689e-02  2.0598345744405326e-02  8.5558648567607268e-02  6.1295367448977063e-04  4.0728761940886593e-02  2.0309460391957948e-04  1.4011783372710157e-06  2.5519976662858614e-06  1.7503989072601225e-02  9.3208573615306198e-02  2.2764620426735292e-02  6.4063046902794775e-03  1.2662847050057838e-01  1.4159794766567965e-01  1.3026624666361562e-02  1.1922822691524630e-04  3.3709171857028300e-04  4.6914404746828935e-03  8.1766655533005855e-02  1.6130761872808226e-05  1.7251641710441103e-02  9.9647606912964190e-03  6.0967208729698274e-03  6.4798737543981882e-02  5.1180615465696980e-02  8.2882231701056586e-05  1.6784389842524063e-05  5.7343184960387153e-04  1.4618090550261591e-03  9.8836008709539055e-02  1.1558819014022957e-01  1.0312027541173870e-03  2.5838560044911430e-03  8.1305852354017563e-03  7.3452116881513138e-02  4.8680988710974133e-03  1.1645847878184979e-02  7.1752362468938569e-02  2.1192078983206734e-05  1.0357144637535808e-03  1.1323268192608943e-03  7.5993859442558508e-06  8.8672319300589988e-07  4.1926990338670090e-04  1.3754162296032640e-06  1.5537497658760706e-06  5.6380383024510071e-05  2.1483093399432909e-04  2.2477212915428284e-04  2.5472908130571677e-05  3.1304065377602851e-05  9.9665755996672533e-06  1.3693732790297963e-01  1.4186281150216412e-01  1.3432837806148182e-01  3.5744233861623164e-06  1.2582248328664817e-05  8.7936285565822514e-05  1.3351485466900631e-01  1.4591244360629379e-03  4.2899429884354918e-02  3.1342402768334998e-02  2.0537957111174312e-02  8.6417660359343861e-04  2.6797229303668576e-03  5.2482277476854793e-02  1.1996270102390941e-03  2.5703017290090718e-04  1.6954675115612772e-06  1.4692821046103609e-06  1.4223328660300258e-07  1.0087936148989017e-01  1.6432952796161854e-03  1.8422410008963148e-03  6.3017415162174677e-03  2.5539601704156553e-05  5.9033803461542517e-03  5.4386093785651268e-04  8.4968492318175909e-02  6.6092868532485975e-03  3.7006588869591358e-03  2.2099028999691357e-05  6.2734012899120242e-02  1.5531267482203254e-05  1.7982887424141471e-04  5.2814747227840034e-02  1.6981393288078852e-06  1.0486058502625817e-01  3.8197954635707243e-02  4.6288030987487988e-05  3.7640742943491821e-05  1.5329147654134478e-04  8.9360015614810204e-06  2.1712067594167505e-02  3.4722610863544966e-02  1.6133890566172632e-06  1.4297117812955528e-05  5.4824858196972442e-02  2.5907039340735323e-03  2.7981614098591275e-03  1.5386779035103914e-05  8.2998083533051105e-04  1.5116573179971720e-06  1.3432978198488113e-04  1.3372523742809349e-02  1.1996985778658443e-05  3.1458264752148545e-02  9.9794329890064717e-02  1.1569619535275903e-01  1.2089542754306756e-01  2.5825889754468169e-03  9.6997600695654974e-03  4.9737050040011672e-02  1.6129588867442610e-06  1.3433980655907803e-06  6.9390693779984456e-06  1.1248993859338841e-05  1.9624317892236703e-08  2.0325502527238220e-04  5.5285694933584632e-05  1.2670310454116538e-02  2.5103611465456921e-07  5.5753617056588716e-03  5.6111753985171314e-05  3.9785503755112352e-04  1.3132541742467520e-03  1.4737404187285155e-02  2.0845878964140439e-02  1.2334634047080018e-01  2.3698552790888326e-06  3.1665695703289682e-03  4.0646075026479773e-02  3.1643838803164320e-02  4.8901070286628089e-06  7.6444068603613011e-02  6.5238448376460853e-02  7.4823724865778860e-02  5.4840854959965719e-02  1.8682881203059163e-04  3.1156037675522483e-02  3.3962858594576446e-03  1.0618706856767312e-02  8.4511703166566244e-04  2.4054129095552602e-04  6.9393468860636230e-06  1.4247494381919801e-02  2.1894832404848595e-02  9.2466008238780109e-02  8.1047725653961641e-05  8.0413416325556888e-02  6.3082840241884874e-02  5.6296151193367402e-06  8.1924830251452578e-03  2.7083133437744047e-03  5.4180035992039508e-06  2.3506457010898183e-02  1.2931837311031263e-01  6.9539968278817921e-02  2.7485251804399850e-04  4.9292324376123199e-05  9.0197206489632947e-03  6.5301062147404265e-05  6.4844334731099185e-06  1.3309035213880310e-02  8.7499997324458623e-02  1.6686180967564063e-06  2.9451021878402442e-02  2.6099295289966115e-02  3.4175587975519679e-02  1.5409415089466337e-05  6.3015844931201982e-03  1.4135534666304128e-02  1.1437658934016534e-03  1.0696933814435716e-01  5.9324711888885745e-02  4.4896540312682352e-06  2.4777353340906683e-02  6.1312642153119805e-04  1.6046740597660806e-04  3.0456872155844582e-05  2.8647945181032041e-02  4.3456976324013408e-02  2.3004608127280644e-03  6.8169928154159702e-04  1.2045098805330421e-04  3.4482648237760927e-05  7.8418798943689430e-02  1.3027517974389875e-02  9.1431525173933481e-06  3.9292987954019222e-05  8.8585744191788549e-05  2.1029972786458295e-02  7.1258768433969362e-04  1.0564788839722110e-02  1.8529928041363642e-04  7.5307954233339663e-02  6.1377841688422541e-06  5.6896436830847601e-03  4.4528500044103109e-02  6.7573108148477428e-04  5.9448250902788783e-08  7.4262480874162345e-02  1.3976641709850435e-03  1.2162138745088404e-02  5.0700343249194209e-02  1.0269202573734626e-05  5.4625486959306233e-03  5.8357535373786691e-02  4.3666020010846887e-05  8.0742639045568541e-07  1.0965484239545442e-05  3.6937794214537931e-06  5.0859454608353866e-02  1.0099565010485134e-01  2.1313212763598554e-02  9.2464209806906561e-02  2.0503189704791131e-03  4.5048591015644599e-03  3.8527054794110588e-02  5.0747699131693673e-05  6.9959882189316158e-05  2.8400244627555596e-02  4.8903865360203934e-05  7.5346809650098531e-02  4.5128351595128957e-03  1.1078109294040027e-01  2.1703549301871193e-04  7.4908041189613514e-02  6.2722130037735038e-02  3.0384037143336508e-02  1.5583821522257586e-02  1.5102617889265858e-02  2.5068702513944279e-03  1.5652785774507431e-03  6.0709176189596269e-03  1.0899605080817365e-01  3.8243711250104214e-06  2.5789482408893135e-06  6.7661559573454797e-07  4.7590426025359552e-05  4.6936545171321863e-02  1.6006758745387491e-06  7.9477707747467999e-02  3.8035357414229816e-02  4.4490351876152766e-02  2.1553312576304571e-04  1.6306343224089189e-02  8.4246675914977295e-03  4.9783165820928983e-05  7.4922064034436651e-03  3.7963698495087225e-07  5.5532545272735795e-06  4.6733066585920822e-04  1.6811642951885606e-05  1.6549582367765328e-03  5.5098152844159230e-06  1.5562144037309424e-04  4.6818676987963144e-03  2.7813389897058005e-02  1.1436153723677929e-01  3.1563511743447005e-07  9.7081720271566091e-07  9.7355507048380844e-06  5.2528880826892735e-02  2.8200559880099041e-03  3.8657204244093349e-03  9.7698562876843194e-04  6.1846597744645330e-07  4.7898926672094597e-02  1.8312914912219143e-04  5.0823198886939674e-02  6.5386450225654674e-02  2.4446102080138705e-04  3.5195255874184853e-03  8.8908267216760632e-04  9.3027858977402383e-06  1.1461982359370793e-05  3.4982453147554174e-02  6.6751321910997335e-02  1.8487536482059211e-02  4.6527968202623046e-06  1.0731488453707963e-04  1.8144914906627358e-03  1.5931797825586287e-03  8.9898814380538804e-04  2.8175856830055137e-04  5.7751487494148688e-04  2.0645635968197595e-05  4.4488143076559320e-05  2.4043870312777594e-02  3.7595410449887608e-07  6.5955909025824843e-05  7.4104946286604367e-05  2.2785665385263325e-04  7.8094899174715628e-07  2.5709862701985492e-06  1.2581480211985605e-06  7.2430047373922790e-07  1.6528297451626756e-04  3.7273331684182378e-05  5.7023529832938645e-02  5.6737852461775207e-02  3.6028534762410922e-03  2.0489221431180612e-05  2.7815484334440471e-06  2.7610941857362436e-03  1.7036040053699577e-07  7.5527977971275336e-07  1.7385377353588086e-02  1.2974313386176179e-02  3.9315880881714257e-06  1.2507801609444477e-04  4.6009278398894838e-03  5.7295612285736021e-02  1.3915700154077683e-04  3.6361087520902675e-05  9.8475008843907392e-06  1.3976580361772209e-01  1.3540837617992288e-01  1.2404370214890378e-01  1.8866337844527321e-03  1.3315506643907590e-06  1.0327536065492333e-03  8.3654327304174408e-02  9.4764265270880497e-07  2.7279150614071149e-05  5.8659349978268834e-03  1.9176577846045763e-03  1.2737876123288040e-04  5.1363231632300711e-08  4.1273439685025910e-03  6.2208069325329921e-06  3.0363044423167653e-07  9.1317575797057030e-02  1.5669768750329920e-02  4.2173431525399339e-03  1.1805461524551093e-05  9.7287754922827878e-07  3.8392424190480828e-03  3.1029012933217644e-04  9.5738997009740312e-02  4.8308735391227745e-03  2.1652254056764938e-07  1.7178412657818620e-02  7.1109676530472482e-02  2.9429765703222824e-02  9.6745119646759439e-04  3.7595389552575208e-02  2.3830949700560645e-02  3.9145835877223811e-02  1.4930526213109471e-05  4.9273099978494139e-04  1.3461524584001811e-01  3.0602281700055196e-02  8.6249311009103005e-02  8.9587511966015679e-02  8.2979970712944495e-02  1.0647655065796961e-01  1.0366098833281978e-01  1.2078807860848499e-06  4.5602591680590981e-07  1.2671734690575363e-02  1.7622261561652936e-02  1.8173496864093159e-02  2.3198400494954325e-02  1.4050758475045833e-01  3.7566271190792966e-04  5.9352010263355611e-06  4.4756308923358135e-02  6.7204644066585623e-06  7.6351149492034970e-06  1.2373152443696342e-06  6.1452242492116189e-04  1.9919375588804285e-06  4.2390904584441856e-02  3.5572207818366022e-05  9.7989763235987147e-03  3.7887702082359750e-05  2.1908661988043187e-05  1.3052925501607215e-01  1.3031330918664827e-01  1.3589097004514589e-05  1.4373553343906498e-02  2.3199741093042058e-07  1.3598767770637712e-01  2.5572780920704059e-04  7.2208006216747697e-07  8.6032059527014995e-02  8.4735161675738871e-02  2.4924212361527700e-03  9.7796382620674249e-05  9.5269593939886453e-03  4.0105977525138843e-02  4.2291796640949666e-07  1.2430652166785687e-01  1.5749438440340130e-05  8.8519954229117730e-05  4.8004055855229440e-02  4.1423084511920777e-05  1.1932133550011115e-01  7.4039754269370848e-03  1.7451708885032918e-04  4.7723463246629238e-04  2.1554316165473893e-03  1.5644852966843466e-05  1.4616793323802861e-03  2.9830131047620806e-03  3.4101680070646179e-02  1.8521556647978479e-03  2.6962625287785778e-04  4.6820292607412962e-06  1.4318832582389135e-06  2.5272011907739996e-04  4.2402428769211464e-02  5.8441342504196320e-06  1.5289618394841272e-06  2.7352521953825343e-02  3.5869669769671377e-08  4.2588484468281606e-06  1.3965371464577303e-07  8.6608361779002448e-06  4.3532712333461210e-06  3.1546949108207728e-06  9.6864815503978630e-03  4.6989773566875754e-06  6.5491496126921082e-07  8.1781815175602755e-04  2.6592806801222979e-03  5.4339371428186061e-07  6.6193830192935279e-07  7.0869047082538198e-07  6.6866162511679011e-02  5.0224039047138153e-02  3.5170774407183733e-02  3.9111477858599897e-06  1.0564606024705052e-01  6.1316276891500626e-02  2.4185105865791692e-04  1.1340640109479664e-03  3.9534381557265660e-06  1.3161432444641447e-01  4.8516208929356137e-05  4.9887231570228365e-07  9.9929694104524874e-02  6.7579929569382162e-03  1.3724291061733535e-01  1.4093956555626921e-01  8.7772112774596906e-07  3.7005563409866124e-08  1.0731770755076042e-08  9.9017488054863326e-09  1.9596095553501513e-02  2.2316369194256393e-06  1.2421267745012632e-01  4.3224110436963268e-07  1.0621622130707040e-07  3.8093639324187594e-07  3.7257537578764557e-04  8.9498356947207756e-05  8.7590358975053340e-03  8.8900469175716526e-06  8.4661630920821809e-03  8.5548166587842728e-06  9.9081179282241499e-02  1.0131561110897508e-01  1.1183793202886040e-01  7.4911587230953436e-06  1.1134111112915462e-01  6.9570544760192074e-02  1.1935081606188627e-01  6.5983437011393579e-04  3.8811330485198144e-02  4.0840100734935027e-02  3.1947924028399388e-04  2.0725370728228637e-02  1.4654206549575773e-02  1.0590713604946480e-02  3.3549239745043528e-02  1.0796588842960829e-01  1.2509088253889367e-01  1.0480118300508232e-05  6.4645745827324923e-04  1.0710995856839194e-03  3.1172490392986017e-05  8.9636240805220535e-02  1.7766332665390211e-06  1.6011365127280731e-02  4.2956064730773893e-04  3.6172823923572114e-02  7.6704552780585841e-02  8.0932106411496559e-03  7.5617934965260130e-04  9.4130701067365961e-03  6.0231270979315223e-02  4.7192407066789940e-02  2.7386656398782275e-04  5.3046497889030004e-06  7.9941551200647207e-02  2.8666862743930400e-05  1.2493629635409861e-05  1.9020359153021419e-02  2.6415009795559274e-03  6.7709439922940873e-02  1.7767323442249561e-03  9.2653453194776095e-02  1.0942278285579760e-05  7.1323841954622205e-03  5.1686944553890274e-03  8.0083800422243838e-05  3.9180166285926888e-04  3.0241520959973335e-04  1.0573458043481835e-04  1.3193066950280548e-04  1.8854891282351290e-04  2.7302002770104909e-02  3.6139823531691436e-04  3.9378735949012460e-03  1.9560215952601719e-02  2.2114416299775486e-03  1.6767677791161013e-03  1.2079476135630474e-05  9.4185324016657287e-03  7.6080723903614272e-04  4.8953212465801838e-04  4.3666792988441216e-04  6.4175054590265453e-04  1.2377659577337259e-02  1.0179847359598275e-02  5.8651514642366976e-03  3.7741717352873599e-02  2.0989736530543208e-05  5.3912682308090732e-05  4.3183008700535894e-05  9.9218958316910592e-05  1.4791429739633517e-04  6.6765692493584193e-05  1.3187816499957602e-05  4.1580481829393591e-03  8.5099792344735109e-03  1.4878880635592874e-05  1.2121427051994280e-06  2.9928639661314797e-05  4.9489725582699115e-03  2.2585714028667225e-02  4.5206018087696788e-02  4.1091250404560967e-03  1.3344124346287083e-04  7.1552954390745993e-02  1.5038810102841775e-02  6.2043091535024698e-06  9.3850960643477158e-02  3.3460921228253403e-04  8.0580713753195644e-06  6.5960421656411942e-06  4.4701693652365212e-07  4.1340174352186545e-05  8.1113691645565467e-06  2.2214305043448370e-02  4.9139086301297954e-03  1.4062899723809389e-02  3.5328005697944594e-02  2.1594245401421967e-04  8.3623510891778110e-05  2.6419333819974879e-03  3.4268379285318201e-06  2.8300891755736180e-02  7.8227782345756391e-03  2.1818619389538274e-02  2.8053517793997288e-02  4.6561692567833856e-05  9.5532980022596112e-06  1.8684468413776163e-04  6.9647531687011376e-06  1.8593454206626762e-04  6.3282853096466436e-06  4.5798290578214867e-07  2.6676199835394272e-04  4.2657957212793888e-03  1.9363880487129844e-07  5.3655153783552231e-05  3.6231732270762269e-04  4.2251500539672853e-05  9.5233832134922859e-05  1.9012148081130748e-04  3.4999609473676647e-05  2.45596614898