<?xml version="1.0"?>
<VTKFile type="UnstructuredGrid"  version="0.1"  >
<UnstructuredGrid>
<Piece  NumberOfPoints="6486" NumberOfCells="12696">
<Points>
<DataArray  type="Float64"  NumberOfComponents="3"  format="ascii">0 5 0  0 0 0  5 0 0  5 5 0  2.5 0 0  5 2.5 0  2.5 5 0  0 2.5 0  2.5 2.5 0  0 1.25 0  1.25 0 0  1.25 5 0  0 3.75 0  5 1.25 0  3.75 0 0  5 3.75 0  3.75 5 0  3.541666666666667 1.458333333333333 0  1.458333333333333 3.541666666666667 0  1.875 1.25 0  3.75 3.125 0  1.284722222222222 2.326388888888889 0  2.683189655172414 3.767959770114943 0  0.9375 0.9375 0  4.0625 4.0625 0  0.7252209595959597 3.026357323232324 0  2.763480392156863 0.9129901960784315 0  1.875 4.345238095238095 0  4.345238095238095 1.875 0  4.192708333333333 0.8072916666666664 0  0.8072916666666665 4.192708333333334 0  3.368055555555555 2.326388888888889 0  0.6837606837606839 1.738782051282051 0  3.285485245626782 4.324328415208927 0  2.551239698778062 1.693130150610969 0  1.827256944444444 2.868923611111111 0  3.464875022477093 0.6813924607921316 0  1.942880513719175 2.059558626187995 0  3.04563492063492 2.971230158730159 0  4.375 3.4375 0  2.13639445139758 0.5994472256987903 0  4.272228422619047 2.606956845238095 0  0.625 0 0  0 0.625 0  5 4.375 0  4.375 5 0  0.6400043240752655 2.384646170113389 0  1.347691225855598 1.660875475110776 0  3.515783617857982 3.723905460714006 0  3.125 0 0  1.875 0 0  0.625 5 0  4.375 0 0  5 1.875 0  0 1.875 0  0 3.125 0  1.875 5 0  5 0.625 0  0 4.375 0  3.125 5 0  5 3.125 0  1.489644181965304 0.6007147273217681 0  2.054597701149425 3.742302955665024 0  2.662520990197781 4.39452575763237 0  2.415835363784578 3.165530021913244 0  0.8679986894865213 3.602373689486522 0  1.267459753787878 2.886186079545454 0  4.099702380952381 1.365327380952381 0  1.316964285714286 4.438244047619047 0  3.7915135293491 1.959691594758709 0  2.875141124191255 2.118761176511833 0  3.00418010501169 1.397414179299248 0  0.4081721322167092 3.410647930198662 0  0.4166666666666666 0.9375 0  1.014190407998288 0.4422301359994293 0  1.383260571305984 1.162718286082048 0  4.53125 3.90625 0  4.453125 4.453125 0  3.772848162504192 4.48678272083473 0  2.8125 0.404329517041716 0  0.4538690476190476 0.4538690476190476 0  2.305461739347387 1.04517007574828 0  3.771263799175824 2.624190260297553 0  3.229617768018734 1.809956994202883 0  3.780190884441317 1.025307111692601 0  4.646337365591398 0.9375 0  4.537623451379149 0.4609485750426037 0  1.200477888421151 3.934852888421152 0  0.3536626344086022 4.0625 0  0.4623765486208503 4.539051424957397 0  4.0625 0.353662634408602 0  4.560525106689535 1.390989100915847 0  3.958439078571988 3.619844539285994 0  4.672619047619047 2.1875 0  2.1875 4.672619047619047 0  1.862808494877602 3.325947624431087 0  0.3268135998175443 2.8125 0  4.674181280189791 2.8125 0  2.283233994935276 4.138623547175983 0  0.9375 4.677879119362977 0  3.08488061581743 3.469889594488945 0  3.113427375573758 3.913955730709506 0  1.652847799068813 3.950848935641292 0  2.932652662909449 2.550542739521724 0  3.311350648514189 1.088831994878698 0  0.6770833333333333 1.295851139601139 0  0 1.5625 0  1.047214787840024 1.96818092308125 0  4.183331482095785 3.03958703580843 0  3.4375 5 0  1.071307777252521 3.246275861010018 0  0 2.1875 0  0.386576856303419 2.03125 0  1.713862716483534 2.439783116849799 0  1.775396256975935 1.665976816304977 0  2.231236976948428 1.443917394671254 0  2.373900732409897 2.086930260150635 0  4.114918237574474 2.221646174618671 0  3.661302567757379 4.099620139144836 0  3.378215938602977 2.734494874063393 0  0.9842097536079312 2.597286741306247 0  1.642795138888889 4.672619047619047 0  4.0625 5 0  2.099458800960004 2.567446522665629 0  2.616202751603346 1.297895893940078 0  5 4.6875 0  0.9937554350075428 1.512592975947215 0  2.8125 5 0  3.002695327068194 4.614055254615477 0  3.205627424097207 0.3852436382721472 0  1.678616581261621 0.927556612265266 0  3.365326698305438 3.196943731162083 0  1.554834936170314 3.120009882655813 0  3.108408340729323 0.7797187795784133 0  3.684368918102174 0.3728877601163941 0  2.716214835303553 3.39276351922003 0  2.37718583984784 3.551973401560441 0  0.3750662445374837 1.52191994866787 0  2.679073487930202 2.844160731602957 0  1.557635869750078 1.991068682985722 0  1.812595698561088 0.3839273018252746 0  2.512014721281916 0.6320641118792227 0  2.1875 0 0  2.349973454443689 0.3189980586887866 0  4.6875 3.59375 0  4.636052949022233 3.178355898044465 0  4.6875 5 0  3.345485909784306 4.665765449101383 0  0.536727472389443 3.749603193819277 0  4.349541499640203 1.116201826262156 0  2.886559045931982 1.774013674579691 0  0.6770833333333334 0.7142857142857143 0  1.5625 0 0  4.120842096538671 4.628726497527622 0  2.176157474177018 1.793470423744689 0  2.175650736889416 2.909863021769539 0  4.036616464259081 1.709699085170981 0  3.887974623473683 0.6492597046022868 0  3.4375 0 0  3.70675699592552 2.289666624772415 0  4.697265625 4.208984375 0  2.815177577303495 4.085937578239174 0  4.672619047619047 1.730733296184288 0  4.6875 0 0  5 0.3125 0  0.3125 5 0  0 4.6875 0  0.3276089296588581 2.484526834811734 0  0.712433309515852 2.065138854645612 0  0.6376435912223634 2.711473454001295 0  1.184991292170422 0.7222504400947201 0  1.31884329779317 0.3206944232264773 0  3.683609198994263 3.44428698533042 0  0.3125 0 0  0 0.3125 0  4.231797269642997 3.789141808928991 0  1.564375596050781 1.425998687184973 0  2.007640894175573 0.9032106925568466 0  0.955125897558294 2.276666098587227 0  1.43898735721003 2.611310720271951 0  1.954491523717513 4.040700257877075 0  1.752947649777421 3.652439445419346 0  2.509575750247638 4.678021307664052 0  4.687194709705067 2.499965519538002 0  1.5625 5 0  0.9375 5 0  5 2.8125 0  2.1875 5 0  5 1.5625 0  5 2.1875 0  4.0625 0 0  5 0.9375 0  2.8125 0 0  0.9375 0 0  0 0.9375 0  0 2.8125 0  0 3.4375 0  0 4.0625 0  5 3.4375 0  5 4.0625 0  4.010848109290813 3.306446973933037 0  0.3077461147713075 3.119700563473354 0  4.6796875 4.6796875 0  2.333079012424948 3.845757959077508 0  0.7829771267899832 3.317744656243421 0  1.159100632608513 3.532487125138763 0  0.799066251840424 3.893573750162776 0  1.57326499580282 4.255438189102632 0  0.7309366047093668 0.2991402264438908 0  0.3054777494262156 1.223275888123843 0  4.027475154280377 2.78211326942427 0  2.35270874745988 4.426658168476266 0  3.474236283732569 2.021154281686229 0  4.401414236174444 2.329446628171927 0  3.39403781747337 3.987097102903034 0  1.077524329801934 1.214100792470484 0  4.065611571711903 1.066085524514197 0  2.165399002716117 3.335637450367864 0  3.007639563081306 1.093684039371638 0  4.030818285732145 4.351883315180857 0  3.504115222530889 1.739284194222036 0  1.224503368215566 4.712091441401919 0  3.805634204685714 1.321528442399996 0  4.319233123479386 1.573547993867769 0  1.024007670021325 4.394604704797005 0  3.776400432023095 3.839003324979723 0  2.991819819453308 4.320567175146181 0  0.9782797534072181 2.886406017887129 0  1.763835134082104 0.6602345487826022 0  3.765182288741625 1.631193038541544 0  2.267959593989681 2.345053543725764 0  4.412434895833333 4.168294270833333 0  4.4072265625 4.7255859375 0  2.791493971314009 3.11210833271929 0  3.408766223032414 3.469500900677365 0  1.915147569444444 4.725484476461039 0  2.070301968506271 0.2605666686358055 0  2.767932250651506 1.530295992695836 0  3.280065043173439 1.364863281105779 0  4.45101570110842 2.974157152713635 0  3.521928862999512 2.96990445010402 0  2.552921961347576 4.008414007169315 0  0.2682955376854191 3.657555015841003 0  3.084522868361304 2.310593316718068 0  2.669255823227708 1.939379494498064 0  2.615884629473921 2.238841231570381 0  1.405652091971449 0.8877813821442277 0  3.25151486618811 3.68536115104276 0  1.963741569810629 2.331207252264507 0  4.017297980292599 2.486269171379106 0  3.869168920841219 4.748188103831625 0  3.596868753579134 4.77342723825056 0  2.41262958240343 2.764128584995838 0  1.266750578673391 1.404747710001619 0  1.559243962241121 2.85146506328516 0  3.128799423834764 2.052081657715259 0  0.6770833333333333 0.9778025793650794 0  0.2083333333333333 0.78125 0  1.978224492765132 3.087074731032578 0  4.051448850909273 1.969392119104174 0  1.320577095006813 4.172234780971559 0  3.214261103850064 2.534397293281829 0  0.2635729089754111 1.779234736680035 0  3.510775680035133 4.460728640112889 0  2.603081405968802 0.2432579385496493 0  2.866341315154884 0.6662105505481998 0  3.000919221100777 0.2270278495648781 0  1.298858304121393 2.05917319923859 0  2.020292299736597 1.589794568392338 0  0.7401688396476035 4.470780315741533 0  0.6721783535561408 4.733125588707921 0  3.753712482075402 2.874301339727514 0  3.557348205914658 2.491958694539413 0  1.094565978195436 0.2011034254079851 0  0.9338148378011396 0.6833568465908735 0  2.945530578578538 3.701798332963805 0  3.111707186654356 3.216904195825605 0  1.341791111822685 3.293123262233967 0  1.632939924064587 1.184895891095613 0  0.6335477978936732 3.517393619499591 0  0.5576014611130192 3.210998966942492 0  1.564344196470102 0.3630498725895039 0  2.75362450242839 4.626680495816594 0  3.571304405229554 1.192452351107437 0  3.522934592621944 0.9359134489437148 0  4.453125 3.671875 0  4.765625 3.828125 0  1.055906321410838 4.14310472322957 0  4.795146539102229 0.46875 0  4.767156345199235 0.7178596932040019 0  0.2048534608977711 4.53125 0  0.232843654800765 4.282140306795998 0  0.5393715189906129 4.270810883024032 0  4.329922600274667 0.2750645887059072 0  4.275515096738972 0.5448389557295173 0  4.477747423652795 0.7252838358993123 0  0.2002829820452772 0.46875 0  0.4352678571428572 0.6956845238095237 0  0.5007241582667088 0.2123388122114133 0  4.672890923830735 0.2500902110494848 0  0.4308009280819452 4.783624996516437 0  2.104871305393774 4.438653689007242 0  0.2274454167838428 0.2274454167838428 0  3.446466574593436 0.4359605369011901 0  2.12354112127588 1.217588426759619 0  2.309175236825235 0.7888355970690434 0  2.556178570281936 1.054299163237582 0  0.578683248637
[...]
<PointData  Scalars="f_10845-0"> 
<DataArray  type="Float64"  Name="f_10845-0"  format="ascii">-7.4714088613095427e+01  -6.6128569324987241e-01  -5.3639246122119476e-02  -3.2999635196446130e-02  -3.4252580574339009e-01  -4.8288022079010159e-02  -9.4779613499668773e+00  -5.5472937225580867e+06  -3.2702268375680266e-01  6.7394975565980442e+00  -5.0269250134857735e-01  -2.6305636521234515e+01  -1.6455981839231361e+04  -5.1102171678649499e-02  -1.8437518474550246e-01  -4.6141778738748772e-02  -4.5495172043167977e-02  -2.0704115396344910e-01  -7.0001932174573017e+02  -4.2187561036703430e-01  -1.8159994838141569e-01  -3.3302125474877364e-01  -1.7772477820160315e-01  -5.3247687863114590e-01  -1.2608073918165311e-01  -9.5546928396039395e+04  -3.0667608898020865e-01  -2.4354575583989958e+02  -1.1144848129901413e-01  -1.2904335627547300e-01  -1.7487779165804261e+03  -2.3033713829492480e-01  -1.7097706457517095e-01  -1.1078878567238462e-01  -3.3471151483991529e-01  -2.9168156492665104e-01  -2.1811735288596193e-01  -3.9015753866343561e-01  -2.6052004594751038e-01  -1.0668328662344850e-01  -3.8822963805737959e-01  -1.1851171284865984e-01  -5.8307026831732855e-01  -5.8076163992539764e-01  -4.4892544388584900e-02  -4.3419813601215093e-02  6.9762469559251963e+02  -4.4460135375339127e-01  -1.7710808256765703e-01  -2.6077496894092833e-01  -4.2073399230227793e-01  -4.8081671288587394e+01  -1.1093635881289853e-01  -4.8881038680175848e-02  2.0047822828219189e+04  -3.2904005967632978e+05  -2.2372892817130811e+01  -5.2452183731726422e-02  -1.2338086747047089e+03  -1.1548680671717697e-01  -4.6652972178115627e-02  -4.7137856500096886e-01  -7.1876776479330315e-02  -1.7925002103906312e-01  -2.5388819194645418e-01  -2.2361811491723482e+04  3.6013935627667166e+00  -1.3974467598592910e-01  -3.9835702745221937e+02  -1.7658790217366485e-01  -2.9313441662915385e-01  -2.7659021388436655e-01  -7.1471923884135016e+04  -5.3858176134371505e-01  -5.3283550215282294e-01  -4.8370407121274706e-01  -8.9215498665975820e-02  -8.1086645527653115e-02  -9.1600301865235129e-02  -3.0152994555714951e-01  -5.9753847122847503e-01  -3.6680826519896181e-01  -1.7970867806011237e-01  -2.4821895136167743e-01  -1.7877255305026171e-01  -8.1811934940800829e-02  -9.3531669648522053e-02  -3.9555691601583949e+03  -3.3182441230580134e+03  -3.1353776761304323e+02  -1.4584768876299378e-01  -8.8210775821625176e-02  -1.5294780656766077e-01  -7.6822563416993075e-02  -4.5662561304951353e+01  -2.2011441682123045e-01  -9.8423714337235398e+05  -7.5060279713522970e-02  -1.9613327716791109e+00  -1.3968189681214926e+02  -2.1244991295979621e-01  -1.5945557049034154e-01  -7.7079244536182284e+02  -2.8462739073702520e-01  -2.3639005818591019e-01  -4.9261327679925782e-01  4.3192225300052007e+02  -4.6406778856482522e-01  -1.2956015723785866e-01  -4.6961906643277408e-02  -8.5008890431677755e+03  -7.6076885757603333e+04  -7.4943242201652436e+02  -3.4421731242915776e-01  -4.2876197228153912e-01  -3.7587149411084408e-01  -3.5616472266584887e-01  -1.3649699002455848e-01  -1.3431843037649466e-01  -2.2877583775247595e-01  2.5297717816478016e+01  -1.0924784579167142e+02  -4.4531800416246062e-02  -3.2958525229815344e-01  -3.2710857660289877e-01  -4.1199599531841255e-02  -4.6567361549864156e-01  -1.5338037130063513e+00  -8.1952895091153749e-02  -2.5113420223106486e-01  -4.4710649684333342e-01  -2.2407129034115389e-01  3.0572168408575401e-01  -2.6310460980782852e-01  -1.9004584639628527e-01  -2.2441528688685741e-01  -2.0469954077684860e-01  -7.9297307219472470e+00  -2.8898142007714289e-01  -4.0422292217591899e-01  -4.2992674389534163e-01  -3.3887877579322812e-01  -3.8050346443439459e-01  -3.5928810125390476e-01  -7.3563060855474691e-02  -7.8795255697659577e-02  -4.0345927270341392e-02  -7.4528816179934398e-02  -1.3424688711733876e+04  -1.1080828087429613e-01  -2.9243819357311562e-01  -5.6356356436582011e-01  -4.6270729329930338e-01  -7.5330721230034550e-02  -3.8287934788978151e-01  -2.8638248746569561e-01  -1.4630170387530636e-01  -1.6481951692638699e-01  -2.2190817797434634e-01  -1.8745141912189406e-01  -7.0411230204961192e-02  -1.3962885678885170e-01  -7.7064042182703296e-02  -7.9684099676682954e-02  -5.3290803391521438e-02  -6.4410991050974417e+01  -2.8378968457487520e+02  -2.7642327615292666e+04  1.8021380654969210e+00  -2.5946337445261729e+03  -5.1093212898395080e-01  -4.9343088564310028e-01  -1.8543250547515019e-01  -6.2348102887839107e-01  -6.1960971901569839e-01  -1.2116896806417284e-01  -4.5749254309460113e-01  -4.0482974335023364e-01  -6.5624410063384095e+00  -1.3850795086592591e-01  -6.8802770677443732e+01  -1.9032766069467325e+01  -6.7850165522547821e+00  -7.4263631937714999e-02  -2.7488139957320339e+01  -3.1435239523767262e+01  -4.7380369567225744e-02  -1.7509963995589672e+01  -4.9708489609840201e-02  -4.8611626352382302e-02  -1.4633713910411464e-01  -5.2137612828599099e-02  -3.0149662632793950e-01  -5.4244811247486446e-01  -9.2441178419380232e-01  -1.4257454679961430e+06  -7.4685893217679361e+04  -3.4106465785640894e+03  -4.6494398140506189e-02  -4.5577507564766098e-02  -1.4946214527888685e-01  -2.8606884464213537e+05  -5.8519261470678978e-02  -1.3551381159309106e-01  -7.3482943364290986e+04  -1.1136653075548469e+04  -6.4107709688625118e+03  -7.0429076106829825e+02  -5.6919145882474254e-01  -2.1977217266102400e-01  -1.4795566785353714e-01  -9.0710870501898615e+00  -2.1688186708811746e-01  -1.0349448319975867e-01  -1.4925575270715280e-01  -5.0064280070995493e-01  -1.4365141065761555e-01  -2.3083867805172734e-01  -2.7533144353910194e-01  -1.0304644371953556e-01  -2.1241328744191365e-01  -1.2395610166642290e+02  -1.7545462188421795e-01  -1.1432718227824953e-01  -5.9665775273232418e+02  -1.5701205772253801e-01  -1.1129672934635859e-01  3.8653053274960405e+02  -4.3625011365467498e-01  -1.7904830411744710e-01  -3.5137230829420141e-01  -9.6419459403467009e-02  -6.3418406389403201e-02  -2.5767245849285519e-01  -2.0412922923542345e-01  -6.9738619902789239e+01  -3.9618858992011713e-01  -3.0721942442159106e-01  -2.4061064957329112e-01  -9.8390422649035275e-02  -2.1007832195874721e-01  -1.4623767588961228e-01  -2.3314715924866472e+04  -2.6637220600484318e-01  -3.1958915061436910e-01  -3.2596327405086073e-01  -4.8231271605651338e-01  -1.8560193802716274e-01  -3.5899687287889726e-01  -1.4892142947592935e-01  -6.5640394085901776e-02  -6.4173731032523246e-02  -3.0297266176830789e-01  -4.7587976988171388e-01  -5.3333101622337364e-01  -2.6102848009620894e-01  -5.3316211289909154e-01  -5.5249149505263095e-01  -2.6561128463671640e-01  -1.4424793511414100e-01  -1.3014414857674951e+03  -2.4966381716667305e-01  -3.0494769361491120e+02  -9.5212748242036405e-02  -3.2829706271737630e-01  -2.9323779258916244e-01  -2.7735691462468370e-01  -3.9069571535633829e-01  -4.0306456611364094e-01  -4.0477511291062592e+02  -1.1530182705759590e+02  -1.8128843179425355e-01  -2.0657975856591712e-01  -5.2232493907710253e-01  -5.4283316810431859e-01  -1.8563857980551257e-01  -2.3873786862145072e-01  -5.3480156858808932e+01  -4.5307449615803436e-01  -3.8742648634394995e+04  -1.6063291047912097e+05  -4.6204720064899601e-01  -4.2129485566103964e-01  -2.0424931483608336e-01  -2.1131349299511004e-01  -9.7696494099373907e-02  -6.5887123573884529e-02  -1.7665149698694788e+03  -6.8914610580781188e-02  -7.1517728580843362e-02  -5.2488834017645956e+02  -1.1424102320120153e+03  -1.1470939616989226e+03  -1.1568427809939116e-01  -1.2118714495748131e-01  -9.9092140909381260e-02  -5.9994499560667003e-01  -5.6933023613319578e-01  -5.9914483998573909e-01  -8.0704040755067930e-02  -1.4266879972767407e+02  -7.5638689058289302e+01  -6.2828185781925172e-01  -2.1997395068272751e-01  -3.8975559974837543e-01  -3.6629561414197653e-01  -3.3476153071436565e-01  -4.7426820598338736e+03  -2.3877958561763601e-01  -3.6898553980351506e-01  -8.2889189383929133e+03  -1.6966913043757981e-01  -7.1756649354038443e-02  -6.8532369310752780e-02  -6.1540951602718073e-02  -5.1063753635731535e-01  -2.5939739966254542e+03  -8.8242322578439489e+03  -2.6803307295076106e-01  -1.0839568503097459e-01  -2.6477674247904504e-01  -1.9034429536753769e-01  -4.2846471591162405e-01  4.3994291359552102e+00  1.1081199511844064e-01  -1.1229120265903787e-01  -4.4241593418653530e-01  -9.9119355045954927e-02  -2.1063973438882294e-01  3.5289911192290856e+03  -6.7847292611645543e-02  8.2435165261175118e+00  -6.3499581701276162e-02  -1.3253035358775475e-01  -1.4212200165058428e-01  -1.5464682244893888e-01  -1.9668210805439866e+01  -3.2958759102687938e+05  -2.3531648587433449e+06  -5.9847194965310650e-02  -9.2444049395743064e-02  -3.8486294959255229e-01  -2.4106176638957508e-01  -2.3592382402396192e-01  -1.1493285485813108e-01  -2.0201475125089602e-01  -5.9676336027420812e-02  -1.3506449169816265e-01  -2.9979728141928452e-01  -7.4121602300154322e+01  -3.2166299592934672e-01  -5.8970025773792378e-01  -5.1226680251861412e-01  -4.9959672832972840e-01  -2.3730488160334007e-01  -1.4773269634656797e+05  3.2944159037533327e+05  -6.0334643997957224e-02  -6.1582733761469055e-02  -3.4349505710492152e+00  -1.5078893459605496e+02  -4.5387046191673740e-02  -1.5469990554973465e-01  -1.1830089245352968e-01  -3.0488780504636231e-01  -5.5720418666976933e-02  -2.6949066993204979e-01  -1.2490901292944424e-01  -4.7277922934364045e+02  -6.4071180691959881e+01  -3.0600501063274382e-01  -6.5775735203527764e+05  -5.6238043425355944e-01  -9.7669945444997672e-02  -2.3132817276200948e-01  -3.7162241494431031e-01  -3.5490015083558568e-01  -1.9715856913825627e-01  -4.2135581634652158e-01  -4.3362243851279808e-01  -4.4328498589833665e-01  -4.0669412923091430e-01  -1.5792535852289463e-01  -3.0771259878339891e-01  -1.9996334700621890e-01  -2.5905939103460884e-01  -4.2924360395817018e-01  -6.6493355618598628e+01  -8.8810811568273973e-02  -2.2748117385261785e-01  -3.3918653134307580e-01  -5.0645435322719135e-01  -2.8071582375557222e+02  1.2567836364863711e+01  -4.1424916905594228e-01  -1.0817401225210578e-01  -2.8037923827015576e-01  -2.4255580886193573e-01  -8.3393381148982260e-02  -3.0461810629101416e-01  -5.4525691263330933e-01  -5.5022327855442754e+03  -1.6124422281177728e-01  -1.2183586541749115e-01  -2.6836897071341126e-01  -1.2549807363426102e-01  -6.8940492058365818e-02  1.3738221860687420e+02  -4.4406585036039037e-01  -6.5105571374868651e-02  -3.5642791643168986e-01  -3.4478272058724430e-01  -3.6214815209882256e-01  -1.0870497189658927e-01  -2.9251015973288100e+04  -1.4825980286979631e+04  -2.0176426159700869e-01  -4.8811304561988783e-01  -1.5758654900357927e-01  -2.8144932504385821e+01  -3.2955656553002949e-01  -1.6327529320200954e-01  -1.7159539631534632e-01  -9.5588491723323760e-02  2.4068713791162963e+01  2.5089845338262641e+01  -6.9460016418886735e+03  -2.0396451120110481e-01  -1.5611146444349205e-01  -1.3750849136845103e-01  -4.8229245918276831e-01  -2.7853647622115529e-01  -4.8942542388863508e+01  -1.7956372464266957e+02  -1.4391824034556605e-01  -3.3729500071626328e-01  -1.9708611738363304e+03  -3.0330944040635999e-01  -1.3437979449146589e-01  -4.7228889700540977e-01  -9.1075619050599188e-02  -5.8738921649450771e+04  -3.8414337623449457e-01  -1.9665512522631740e-01  -5.1885502437810115e-02  -4.2248376015174943e-01  -2.2078068758093422e-01  -3.0130489285449702e-01  -4.1425617673937165e-01  -9.5124501000231274e-02  -2.2960508355791667e-01  -6.4776821535236631e+03  -9.6974161796052810e-02  -7.2059440827740101e-02  -9.7912286222845341e-02  -2.0170673499915878e+01  -4.0327292749802890e-01  -4.6317136478459886e-01  -3.0963908103811305e-01  4.9744272181422661e-01  -2.0850930871927845e-01  -2.5552652466934717e-01  1.8975565185816751e+04  -1.2858798552667677e-01  -1.3502102376856726e-01  1.0189190205001198e+03  -1.5752203628103953e+02  -2.2151887966482320e-01  -2.5693773092272398e-01  -4.7846983173090246e-01  -1.6760780763675182e-01  -4.6219568579690656e-01  -4.3267620492676379e-01  -3.6247408582767654e-01  -3.1695708942064471e-01  -3.1711305893804331e-01  -2.0251512813573050e-01  -1.8106214161205039e-01  -2.4426687078272846e-01  -5.4500639689773733e-01  -3.7271740312911838e+01  -8.1855876830232099e-02  -7.8238364973064092e-02  -2.5683040658772160e+02  -1.0262479337086752e+00  -5.5486873406015130e-02  -4.6700065407347996e-01  -3.8236141561129411e-01  -3.5849648655073207e-01  -8.6156438993958182e+02  4.5224170937005788e+00  -2.8453697322423149e-01  -1.2631061449711747e-01  -2.7140701409423729e-01  -4.9099860715631265e-02  -7.6960172758667345e-02  -1.7211423442597992e-01  -1.0727210617290807e-01  -1.0862159164283985e+04  -1.1103473488421826e-01  -1.5540853490084314e-01  -2.4761335608869545e-01  -3.4540382289338289e-01  -5.6279012103898218e-01  -5.1625624601774549e-02  -6.5619464007234285e-02  -3.9458220617348253e+01  -4.1958505450894479e-01  -1.8130309613666232e+04  -3.0830400933460100e+04  -1.9856277362199204e-01  -6.0761805721691674e-02  -4.0635635030272776e-01  -1.2055108820800878e-01  -4.0814130424343942e-01  -4.7630689367192003e-02  -1.5592490543206461e-01  -3.5809222612598271e+04  -4.0565697144020010e+03  -6.4105985740705805e+01  -6.5767937133213593e+01  -3.7404976781658006e-01  -4.5091818496666464e-01  -3.1874328655696971e-01  -8.4650260242938632e-02  -3.8688927580277999e+02  -5.7336473185224042e+02  -2.1019549304837629e-01  -1.9447944205786866e-01  -1.7254089484864824e-01  -3.3901154228234182e+03  -1.1703825446654233e-01  -1.2709849275197715e-01  -3.4823350727333580e-01  -5.0550981285514204e-02  -1.3065174013751088e-01  -1.3641935770218824e-01  -1.5931591843789686e-01  -5.8745538824088193e-02  -8.1056994516533434e-02  -6.1175635532183810e-02  -5.2999376437790360e-02  -1.8516576836131978e+01  -1.2573322777373758e-01  8.3705377691932725e+01  -9.6754659482703342e+00  -2.3958379450533920e-01  -9.1708469598777223e-02  -6.0036639743772761e-02  -2.2797340902655522e-01  -5.6865161440551371e-02  -8.2261854746021171e-02  -3.1423617499187301e-01  -2.9692167502008876e-01  -8.5409527040597996e-02  -6.9457561357858299e+02  1.0926842495544375e+00  -4.2527218395679683e-01  -1.6016864322853369e-01  -8.9112892942550644e+01  -9.7361364310416754e-02  -5.8033565191971770e-01  -5.5289329286424049e-01  -5.4901077435415957e-01  -1.6429523918404074e-01  -6.5453413203768518e-02  -2.0844064517978808e-01  -2.2492292315438490e+03  -6.3490319444601359e-02  -2.6718460660993730e+02  -2.7302335503110620e-01  -2.2455222803836225e-01  -1.1829731224145855e-01  -5.2448402463859851e-02  -2.5249231673562206e-01  -8.0896620782549014e-02  -5.8772705238083436e-02  1.8575518351813842e+00  2.7402065196650244e+02  -2.2442804913886244e-01  -9.1688220350796379e-02  -6.1842729627955381e-02  -3.2479144240730633e+01  -1.6940520607347562e-01  -5.1443781840665093e-01  -2.5705723754098314e-01  -4.5831184591248977e-02  -3.1119068012616502e-01  2.8040771899055046e+00  -6.2521874176804049e-01  -2.0421988571189895e-01  -7.7974552984208515e+02  -3.3479536913735053e-01  -3.8242592821466537e-01  -9.2311995155290538e-02  -1.8091139167329662e-01  -5.8326832445532129e-01  -2.0809330507894178e+05  -4.8827659090628622e-01  -5.0152412864333995e-01  -4.8558334485188903e-01  -5.2504008381230816e-01  -5.2485427980084953e-01  -6.1751898276799326e-02  -4.8792540674872924e-02  -2.8696179200675426e-01  -2.8612427441818467e-01  -3.1399971889856243e-01  -4.1656764165703586e+04  -5.7973639297747126e-01  -1.8976770510170421e-01  -8.0709750339090697e-02  -4.0093893144892057e-01  -1.0384681781681894e-01  -9.6174849323549375e-02  -8.3551203285646386e-02  -1.5801056499718424e-01  -9.0133467726278810e-02  -3.8303932344470731e-01  -1.3464055917488973e-01  -2.8648621592606605e-01  -1.1880429933162926e+00  -2.0724305541109715e+01  -6.4306789473966208e-01  -6.3819326612430183e-01  -1.2420762692556657e-01  -3.2163773334910106e-01  -6.9315738066614480e-02  -6.1111961485070854e-01  -2.2054073649348838e+03  -6.3067176301990296e-02  -4.7433678584894134e-01  -4.6205613937227369e-01  -2.2798553391432766e-01  -1.3806169229140552e-01  1.7036726319503454e-01  -3.8648703380193816e-01  -4.5082872473776910e-02  -5.7944779015387915e-01  -1.0528080326889037e-01  -1.4486323893478506e-01  -4.0919547426117836e-01  -1.1718836976507532e-01  -5.1341534196902927e-01  -7.7540369188813449e+04  -4.4207207390780877e+02  -9.8592818971938289e+02  1.0468155107503334e-01  -1.2288613520306467e-01  -2.2102155396982384e-01  -2.4576740944536818e-01  -3.3981613400962146e-01  -1.9650544375064707e-01  -1.6095312953720994e-01  -7.4528326179313334e-02  -5.9829541048621392e-02  -1.4943041914562154e+03  -1.9202362131649144e+06  -8.6882526145362426e-01  -5.9061750650418909e-02  -3.6159292405949628e-01  -4.2193528709786529e-02  -2.5052027863994869e+01  -4.4664508849250738e-02  -1.4291320728694120e+02  -6.5578536205179489e+01  -4.1527552419454610e+00  -1.5678663220122515e+05  -3.1900922857493377e+01  -4.6547582075920968e-02  -2.0319926061489335e-01  -2.4120647007620302e-01  -4.8525311058398544e-02  -4.7760555944576115e-02  -4.6972086955841770e-02  -3.5192320716628681e+04  -5.4225260289207660e+06  -2.8947908903610520e+06  -1.3405109716370079e+01  5.2491095947662934e+01  -4.4205595989658730e-01  -1.6490080693186185e-01  -7.4873448208599775e+03  -5.4328427562708960e+01  -6.0303939173770671e-01  -5.8033581046906158e+02  -5.3071846883114837e-02  -5.2255627666949400e-01  -2.8142694802155699e-01  -5.9612235148181658e-01  -7.8474966691813808e-01  -4.5825511623244997e-02  -4.3393265790530690e-02  -3.8032320997567690e-02  -3.7456816423572514e-02  -7.0192604644512967e+05  -4.4518270613768224e-01  -3.0696027303000673e-01  -4.6337549285805517e-02  -4.5690466863573517e-02  -5.2170773656410409e-02  -1.7596127986946838e-01  -1.3621207005401577e+00  -2.4106311159341945e-01  -5.2415477336355728e+01  -2.8365115795690060e-01  -9.2630726997605795e+00  -5.0106703597293401e-01  -4.8236877307630571e-01  -5.1622471007756388e-01  -9.2471208686566303e-02  -5.5270394002954548e-01  -4.2136068469055876e-01  2.6295131283992379e-01  -3.4326849591456821e+03  -3.2466031517561517e-01  -3.8611698929090327e-01  -1.9446233347404109e+02  -5.6210816468761698e+05  -3.3350089396681241e+05  -1.5011289141870409e+05  -9.1998487754989136e+05  -2.8747842436948661e+00  -4.8379394200928588e-01  -9.1322081679498512e-02  -1.7885618025532818e-01  -7.7236139818711695e+00  -1.0943188480376478e-01  -4.5785530575328492e-01  -6.0855807328201249e-02  -3.1549455203119596e+05  -1.1206415415439595e+01  -3.5649717645438289e-01  5.1914596631464083e-01  -2.7464904339012530e-01  -2.6360141831463852e+02  -2.8939345013729306e-01  -3.8736958684946121e-01  -3.6470588019561517e-01  -1.7171480171959300e-01  -8.4413052797195229e-02  -4.2482399454443975e-01  -1.1482057353873344e-01  -1.0217026055262220e-01  -3.4186490218447313e-01  -2.2884705043201814e-01  -4.4046985089527479e-01  -2.1549185891035910e-01  -4.9323473902699078e-01  -9.2412813665853993e-02  -4.7872276684538301e+03  -1.7329204179579524e+03  -1.1834942362910673e-01  -1.6762758163098093e-01  -1.6011878815289193e-01  -1.3499687770798530e-01  -1.3834629539006998e-01  -6.8259357662455545e+02  -1.3074613747201266e+06  -1.4731552734703959e-01  -1.9475686939429153e+04  -3.2705525699316595e-01  -1.2247550419918765e+04  -9.0850716885428865e+03  -1.9481000419595412e-01  -2.7941014573883372e-01  -1.9455978895488349e-01  -1.8482897419869265e-01  -1.9870347818228370e+03  -6.1682981216562398e-02  -1.2352189694461825e+05  -3.7521996269898409e+04  -4.1833694300140858e+04  -3.6881008927605080e-01  -1.1374271021215313e-01  -3.7140102343040844e+01  -8.1200933857123001e+00  -4.3642235957517710e+02  -8.3644979601561420e+02  -3.2494657072294262e+02  -8.0973302654484811e-02  -2.5426863255427551e-01  -2.8832668740546696e-01  -9.4188865865441160e-02  -6.5315561993814247e-02  -1.0715200244638443e-01  -1.8907579944850300e-01  1.4383805340318447e+00  -7.4929523226398214e+03  -2.4722357113088575e-01  -1.5218213584601645e-01  -4.4416463672921686e-01  -3.1994598739568325e-01  -7.4575380502821295e-02  -4.4634885908686778e-01  -1.7751997959861043e-01  -1.1388728917326681e-01  -1.0038956384