<?xml version="1.0"?>
<VTKFile type="UnstructuredGrid"  version="0.1"  >
<UnstructuredGrid>
<Piece  NumberOfPoints="6486" NumberOfCells="12696">
<Points>
<DataArray  type="Float64"  NumberOfComponents="3"  format="ascii">0 2.5 0  0 0 0  2.5 0 0  2.5 2.5 0  1.25 0 0  2.5 1.25 0  1.25 2.5 0  0 1.25 0  1.25 1.25 0  0 0.625 0  0.625 0 0  0.625 2.5 0  0 1.875 0  2.5 0.625 0  1.875 0 0  2.5 1.875 0  1.875 2.5 0  1.770833333333333 0.7291666666666666 0  0.7291666666666666 1.770833333333333 0  0.9375 0.625 0  1.875 1.5625 0  0.642361111111111 1.163194444444444 0  1.341594827586207 1.883979885057471 0  0.46875 0.46875 0  2.03125 2.03125 0  0.3626104797979798 1.513178661616162 0  1.381740196078431 0.4564950980392157 0  0.9375 2.172619047619047 0  2.172619047619047 0.9375 0  2.096354166666667 0.4036458333333332 0  0.4036458333333333 2.096354166666667 0  1.684027777777778 1.163194444444444 0  0.3418803418803419 0.8693910256410255 0  1.642742622813391 2.162164207604464 0  1.275619849389031 0.8465650753054845 0  0.9136284722222221 1.434461805555556 0  1.732437511238546 0.3406962303960658 0  0.9714402568595876 1.029779313093998 0  1.52281746031746 1.485615079365079 0  2.1875 1.71875 0  1.06819722569879 0.2997236128493951 0  2.136114211309524 1.303478422619048 0  0.3125 0 0  0 0.3125 0  2.5 2.1875 0  2.1875 2.5 0  0.3200021620376328 1.192323085056694 0  0.6738456129277992 0.8304377375553881 0  1.757891808928991 1.861952730357003 0  1.5625 0 0  0.9375 0 0  0.3125 2.5 0  2.1875 0 0  2.5 0.9375 0  0 0.9375 0  0 1.5625 0  0.9375 2.5 0  2.5 0.3125 0  0 2.1875 0  1.5625 2.5 0  2.5 1.5625 0  0.7448220909826522 0.3003573636608841 0  1.027298850574712 1.871151477832512 0  1.331260495098891 2.197262878816185 0  1.207917681892289 1.582765010956622 0  0.4339993447432606 1.801186844743261 0  0.6337298768939392 1.443093039772727 0  2.049851190476191 0.6826636904761904 0  0.6584821428571428 2.219122023809524 0  1.89575676467455 0.9798457973793544 0  1.437570562095628 1.059380588255917 0  1.502090052505845 0.6987070896496241 0  0.2040860661083546 1.705323965099331 0  0.2083333333333333 0.46875 0  0.5070952039991439 0.2211150679997147 0  0.6916302856529919 0.5813591430410241 0  2.265625 1.953125 0  2.2265625 2.2265625 0  1.886424081252096 2.243391360417365 0  1.40625 0.202164758520858 0  0.2269345238095238 0.2269345238095238 0  1.152730869673694 0.5225850378741401 0  1.885631899587912 1.312095130148776 0  1.614808884009367 0.9049784971014416 0  1.890095442220658 0.5126535558463003 0  2.323168682795699 0.46875 0  2.268811725689575 0.2304742875213018 0  0.6002389442105756 1.967426444210576 0  0.1768313172043011 2.03125 0  0.2311882743104251 2.269525712478698 0  2.03125 0.176831317204301 0  2.280262553344767 0.6954945504579233 0  1.979219539285994 1.809922269642997 0  2.336309523809524 1.09375 0  1.09375 2.336309523809524 0  0.9314042474388009 1.662973812215543 0  0.1634067999087722 1.40625 0  2.337090640094896 1.40625 0  1.141616997467638 2.069311773587991 0  0.46875 2.338939559681489 0  1.542440307908715 1.734944797244472 0  1.556713687786879 1.956977865354753 0  0.8264238995344066 1.975424467820646 0  1.466326331454725 1.275271369760862 0  1.655675324257095 0.5444159974393489 0  0.3385416666666666 0.6479255698005697 0  0 0.78125 0  0.5236073939200119 0.984090461540625 0  2.091665741047893 1.519793517904215 0  1.71875 2.5 0  0.5356538886262603 1.623137930505009 0  0 1.09375 0  0.1932884281517095 1.015625 0  0.8569313582417669 1.2198915584249 0  0.8876981284879677 0.8329884081524883 0  1.115618488474214 0.7219586973356271 0  1.186950366204949 1.043465130075318 0  2.057459118787237 1.110823087309335 0  1.830651283878689 2.049810069572418 0  1.689107969301489 1.367247437031697 0  0.4921048768039656 1.298643370653124 0  0.8213975694444444 2.336309523809524 0  2.03125 2.5 0  1.049729400480002 1.283723261332814 0  1.308101375801673 0.6489479469700392 0  2.5 2.34375 0  0.4968777175037714 0.7562964879736076 0  1.40625 2.5 0  1.501347663534097 2.307027627307738 0  1.602813712048603 0.1926218191360736 0  0.8393082906308107 0.463778306132633 0  1.682663349152719 1.598471865581041 0  0.7774174680851571 1.560004941327907 0  1.554204170364662 0.3898593897892066 0  1.842184459051087 0.186443880058197 0  1.358107417651776 1.696381759610015 0  1.18859291992392 1.77598670078022 0  0.1875331222687418 0.7609599743339348 0  1.339536743965101 1.422080365801479 0  0.7788179348750389 0.9955343414928611 0  0.9062978492805438 0.1919636509126373 0  1.256007360640958 0.3160320559396114 0  1.09375 0 0  1.174986727221844 0.1594990293443933 0  2.34375 1.796875 0  2.318026474511116 1.589177949022232 0  2.34375 2.5 0  1.672742954892153 2.332882724550692 0  0.2683637361947215 1.874801596909639 0  2.174770749820102 0.5581009131310781 0  1.443279522965991 0.8870068372898454 0  0.3385416666666667 0.3571428571428572 0  0.78125 0 0  2.060421048269335 2.314363248763811 0  1.088078737088509 0.8967352118723447 0  1.087825368444708 1.454931510884769 0  2.018308232129541 0.8548495425854904 0  1.943987311736842 0.3246298523011434 0  1.71875 0 0  1.85337849796276 1.144833312386208 0  2.3486328125 2.1044921875 0  1.407588788651747 2.042968789119587 0  2.336309523809524 0.865366648092144 0  2.34375 0 0  2.5 0.15625 0  0.15625 2.5 0  0 2.34375 0  0.1638044648294291 1.242263417405867 0  0.356216654757926 1.032569427322806 0  0.3188217956111817 1.355736727000647 0  0.5924956460852111 0.36112522004736 0  0.6594216488965849 0.1603472116132387 0  1.841804599497131 1.72214349266521 0  0.15625 0 0  0 0.15625 0  2.115898634821499 1.894570904464496 0  0.7821877980253907 0.7129993435924866 0  1.003820447087786 0.4516053462784233 0  0.477562948779147 1.138333049293613 0  0.719493678605015 1.305655360135975 0  0.9772457618587566 2.020350128938537 0  0.8764738248887107 1.826219722709673 0  1.254787875123819 2.339010653832026 0  2.343597354852534 1.249982759769001 0  0.78125 2.5 0  0.46875 2.5 0  2.5 1.40625 0  1.09375 2.5 0  2.5 0.78125 0  2.5 1.09375 0  2.03125 0 0  2.5 0.46875 0  1.40625 0 0  0.46875 0 0  0 0.46875 0  0 1.40625 0  0 1.71875 0  0 2.03125 0  2.5 1.71875 0  2.5 2.03125 0  2.005424054645407 1.653223486966518 0  0.1538730573856537 1.559850281736677 0  2.33984375 2.33984375 0  1.166539506212474 1.922878979538754 0  0.3914885633949916 1.65887232812171 0  0.5795503163042564 1.766243562569382 0  0.399533125920212 1.946786875081388 0  0.7866324979014098 2.127719094551316 0  0.3654683023546834 0.1495701132219454 0  0.1527388747131078 0.6116379440619215 0  2.013737577140188 1.391056634712135 0  1.17635437372994 2.213329084238133 0  1.737118141866284 1.010577140843115 0  2.200707118087222 1.164723314085963 0  1.697018908736685 1.993548551451517 0  0.5387621649009668 0.6070503962352419 0  2.032805785855952 0.5330427622570983 0  1.082699501358059 1.667818725183932 0  1.503819781540653 0.5468420196858188 0  2.015409142866072 2.175941657590429 0  1.752057611265444 0.869642097111018 0  0.612251684107783 2.356045720700959 0  1.902817102342857 0.6607642211999982 0  2.159616561739693 0.7867739969338844 0  0.5120038350106624 2.197302352398502 0  1.888200216011548 1.919501662489862 0  1.495909909726654 2.16028358757309 0  0.489139876703609 1.443203008943564 0  0.8819175670410521 0.3301172743913011 0  1.882591144370812 0.8155965192707721 0  1.133979796994841 1.172526771862882 0  2.206217447916667 2.084147135416667 0  2.20361328125 2.36279296875 0  1.395746985657004 1.556054166359645 0  1.704383111516207 1.734750450338683 0  0.9575737847222222 2.36274223823052 0  1.035150984253136 0.1302833343179028 0  1.383966125325753 0.7651479963479179 0  1.64003252158672 0.6824316405528895 0  2.22550785055421 1.487078576356817 0  1.760964431499756 1.48495222505201 0  1.276460980673788 2.004207003584658 0  0.1341477688427096 1.828777507920502 0  1.542261434180652 1.155296658359034 0  1.334627911613854 0.9696897472490321 0  1.30794231473696 1.119420615785191 0  0.7028260459857245 0.4438906910721139 0  1.625757433094055 1.84268057552138 0  0.9818707849053143 1.165603626132254 0  2.0086489901463 1.243134585689553 0  1.934584460420609 2.374094051915812 0  1.798434376789567 2.38671361912528 0  1.206314791201715 1.382064292497919 0  0.6333752893366955 0.7023738550008095 0  0.7796219811205605 1.42573253164258 0  1.564399711917382 1.026040828857629 0  0.3385416666666666 0.4889012896825397 0  0.1041666666666667 0.390625 0  0.989112246382566 1.543537365516289 0  2.025724425454636 0.9846960595520872 0  0.6602885475034063 2.086117390485779 0  1.607130551925032 1.267198646640915 0  0.1317864544877056 0.8896173683400176 0  1.755387840017567 2.230364320056445 0  1.301540702984401 0.1216289692748247 0  1.433170657577442 0.3331052752740999 0  1.500459610550388 0.113513924782439 0  0.6494291520606965 1.029586599619295 0  1.010146149868299 0.794897284196169 0  0.3700844198238017 2.235390157870766 0  0.3360891767780704 2.36656279435396 0  1.876856241037701 1.437150669863757 0  1.778674102957329 1.245979347269706 0  0.5472829890977179 0.1005517127039925 0  0.4669074189005698 0.3416784232954367 0  1.472765289289269 1.850899166481903 0  1.555853593327178 1.608452097912802 0  0.6708955559113426 1.646561631116984 0  0.8164699620322933 0.5924479455478063 0  0.3167738989468366 1.758696809749795 0  0.2788007305565096 1.605499483471246 0  0.7821720982350511 0.181524936294752 0  1.376812251214195 2.313340247908297 0  1.785652202614777 0.5962261755537186 0  1.761467296310972 0.4679567244718574 0  2.2265625 1.8359375 0  2.3828125 1.9140625 0  0.5279531607054191 2.071552361614785 0  2.397573269551114 0.234375 0  2.383578172599618 0.3589298466020009 0  0.1024267304488855 2.265625 0  0.1164218274003825 2.141070153397999 0  0.2696857594953064 2.135405441512016 0  2.164961300137334 0.1375322943529536 0  2.137757548369486 0.2724194778647587 0  2.238873711826398 0.3626419179496562 0  0.1001414910226386 0.234375 0  0.2176339285714286 0.3478422619047619 0  0.2503620791333544 0.1061694061057066 0  2.336445461915368 0.1250451055247424 0  0.2154004640409726 2.3918124
[...]
<PointData  Scalars="f_16-0"> 
<DataArray  type="Float64"  Name="f_16-0"  format="ascii">-3.4191180027675044e-54  2.0755104283825472e-09  1.3464651901774902e-60  3.3695000194086791e-66  1.3001832088569059e-33  2.6737194907686898e-56  9.0737775977918328e-55  -2.0793296847715090e-27  3.0332698104264393e-33  -1.9190591347243644e-13  1.6305529243283340e-19  -1.6467369343194357e-54  -4.8475471616595957e-41  2.0495729986628405e-59  1.4424524835937951e-47  5.2529219848033925e-60  2.3746459313796946e-59  8.9431131603618781e-41  2.8373487872416496e-38  4.9553558335867646e-22  2.0348368926738473e-46  1.0886900903500705e-25  6.6395056778377921e-44  2.6354083300581212e-12  3.6032880789563301e-54  1.1034146979375409e-33  8.8277871163996797e-33  3.0556512685474705e-47  2.7382470276557686e-49  1.8465810782944132e-53  -5.9157892005733051e-46  8.3005227526845868e-40  2.0383877382798632e-18  1.5194527693086724e-51  8.7882195909444971e-30  1.6383481113312566e-32  -3.7938834825935302e-44  1.6317784269462962e-26  5.9920393671754209e-40  3.3890331993336395e-53  1.9256709239615150e-27  3.0239088980368600e-49  1.9346697536335315e-12  -7.5766089194265955e-07  9.4112922955881990e-63  7.6321148584793521e-63  9.7026220654890613e-26  6.1972878656055564e-20  1.7746940486001690e-48  9.6035684541680311e-41  1.1316373278427374e-26  -2.9690524576670754e-55  1.3601746512091166e-54  5.1044985893447574e-57  -1.2778900514176545e-20  -7.7698786927711132e-34  1.4858716692969298e-54  3.5522600702988201e-61  -9.0074257338638269e-48  1.1373427576202017e-56  1.1924745149313969e-57  4.0625686668768325e-18  1.9192649542431780e-41  1.1071829747840875e-49  8.9266614912952207e-38  -1.5106623038134578e-40  4.4090816792051241e-31  9.8303325088246266e-48  4.0205121399054934e-49  3.0705238302716652e-43  4.0610651553778745e-34  2.1817455378608248e-34  -3.5817375424128318e-37  2.5052478112494234e-09  1.2477619281279395e-12  6.2506007870240176e-17  9.1594365180406889e-57  1.7774941004456335e-59  1.3554504906757274e-55  1.7742250090446138e-36  9.3624882020393920e-06  5.3391498771984753e-27  1.4426017110623176e-44  3.0976281669480848e-37  -1.5089824814273199e-45  7.0754679007519570e-57  1.6926093762727469e-56  8.1727019642279979e-43  -1.5834295376935353e-44  1.0702504483282753e-50  3.6900984608727618e-51  3.2460822974504495e-53  9.7849884885775892e-51  6.9008292721734684e-53  4.3318825558013390e-51  5.3500938673268103e-37  -1.0855769184324370e-30  1.0524051658308392e-53  4.5808652496757518e-46  -5.3822718864267130e-51  7.9478648143967593e-44  1.8190456422667219e-47  4.4831942531832854e-43  1.0194756488402559e-36  6.0239040110514570e-39  1.1064795360826152e-13  -5.4552585117310818e-17  1.5514009666593379e-21  5.3527311953217112e-50  8.5174256867603606e-58  4.9813285873027824e-35  -2.5440643577619102e-24  -3.9298295018028002e-24  2.2892240613061546e-28  7.3756295118703597e-23  5.7669059357566031e-26  5.7251702652529807e-30  3.9480062821407514e-47  5.4389583739922988e-52  1.6802466897664882e-41  1.1655604259096784e-27  3.5193912029099353e-51  4.4272193853408899e-61  1.8128326627746419e-31  3.6411440100257562e-30  1.6324048099772693e-64  7.6721587241597655e-17  1.2166478665969224e-55  7.2876557789744334e-53  2.0302196421536246e-41  1.3189500498330690e-19  8.9865240801729728e-44  3.0636150975284544e-34  2.2204600376378215e-38  5.0287079062723591e-47  3.4619531665263472e-41  9.0204049653732000e-41  3.0074880359240558e-16  1.0500675151389475e-36  1.1544567959770213e-23  -2.9155713421441146e-24  1.7543868087280165e-31  4.2645394635646951e-30  1.9523882453135104e-31  1.3808503238221719e-56  1.2744209854132288e-54  1.4047359399423833e-64  1.1002934724372919e-54  -6.3921372849622509e-41  -2.9899199038254555e-52  1.6170780647030094e-33  7.9156194211598432e-09  5.0310592011339849e-23  9.2934358013843110e-59  8.2772278468388329e-27  1.7107430916816349e-34  4.3884239685406663e-46  9.7328228439613209e-49  4.0907328421076331e-44  4.0135569160207780e-43  1.0446930896758507e-59  1.7243575725238731e-47  2.5140215414810051e-53  1.4565441195954637e-57  4.9239185665170716e-61  -1.8432502076232932e-54  -2.8140521952980599e-51  -4.2747240142175430e-27  4.1217077993628427e-22  7.2135039025904423e-30  2.9950796569020059e-14  3.1213867469527633e-18  1.0432726933116647e-47  -7.5943038709259276e-09  -5.1818576743810681e-06  5.4439221545729916e-54  6.3673477638386186e-20  1.3190045976741283e-23  3.0521127383742701e-24  6.6217868583740354e-29  3.9201146453933282e-44  6.5435193243059280e-40  8.0014464888685718e-52  2.4957386546821972e-53  4.5748927643192837e-55  -2.4225788164164831e-54  9.4942558199003080e-57  2.1698099048068062e-54  9.3625412809174338e-58  2.1764001095637237e-56  6.0463711165180949e-51  -4.1060654449731543e-61  1.5337820815534747e-37  1.9419754424475695e-16  -4.0469624995846468e-10  -1.7593285858765586e-30  -2.0425126159404657e-37  -3.1284055430876855e-44  1.0527964230470799e-58  3.0562820341294153e-61  1.4934722415088769e-49  -3.7204011049035668e-34  2.5574580612739985e-62  1.8445424520770868e-43  1.4735661560811056e-37  3.1213382962297712e-38  -9.7407674739834661e-43  2.5483673188560378e-46  2.1368070943372695e-10  5.7803034570823045e-13  1.6176578384427524e-47  6.9925962334409481e-49  4.3721410243055303e-40  3.8510859445174525e-50  1.8573080989523364e-49  5.6321194268663540e-15  5.9163236295632807e-50  5.7376629761210794e-38  3.0247230479440378e-35  4.3038162055936899e-56  8.2446359199965969e-40  -5.6938741221241970e-52  4.6902598129610206e-44  6.6094349628923404e-50  -4.6710207070405007e-48  5.7943806284395647e-51  3.3669204137590332e-50  8.3559352151116248e-31  2.8822432230598920e-21  3.6822265293419956e-43  1.3236838511440072e-30  1.9557621691167702e-57  2.5006539340971907e-61  2.1465285230893882e-39  4.5732088698308370e-46  1.5992060562518240e-51  3.4766103551896513e-28  6.5057473851577167e-32  8.7958037919811543e-38  4.1834667648149121e-52  9.1321960987297517e-44  1.4165805933892619e-45  -9.7636586123370736e-40  5.5417096808251213e-37  9.3727496358889064e-32  7.8994489117877528e-33  1.2212383772425891e-16  2.2179691876931361e-46  1.0765692982528268e-28  1.9351788331919597e-46  3.3831449029739986e-58  6.0866951417043472e-57  1.6420389174695733e-34  1.6594914624698794e-17  1.5524746281479261e-31  1.9884114517127636e-36  9.9565909458561242e-11  1.1099739968144747e-07  4.6270215847364371e-35  5.1398575142037527e-46  9.7070872995017232e-46  4.4236786027585803e-39  -1.5441204223880963e-19  8.1343311564460460e-54  1.4399895783419317e-34  4.6916769885028378e-36  3.6032936562483015e-39  3.2680529797436430e-23  1.0359419631831929e-24  -1.1838281782712362e-48  -1.2940571097722930e-52  2.3338138173281741e-45  3.5275957384070415e-42  -3.0587171553977582e-16  3.2934056103311949e-11  7.1871262047365008e-45  2.8176870905628737e-42  1.2633183355100244e-35  1.8738611640465157e-19  -1.7136702381070969e-38  -5.3247611344511751e-35  -3.1885184160912277e-21  2.9242232932232802e-52  5.6893069074208412e-42  2.1254867399181296e-42  7.7906031533146251e-55  2.4607566660645798e-58  -7.7241381238278723e-46  2.7331876306257529e-59  7.3343821730844121e-59  -2.1896919664948075e-49  -8.6044518884168509e-47  -1.9864813745014977e-46  5.2971601988109647e-54  2.4539088854741620e-53  1.4889497792682091e-55  9.3138522414708898e-04  3.8769577451726294e-07  2.3566463911947262e-08  8.3304821013502648e-58  -1.9629603536601929e-52  1.7660383657463282e-48  -4.1311559601444545e-06  5.6570373985486136e-44  8.7420790682067717e-25  1.0558011021873946e-27  6.2195652300780168e-30  -1.8810896433006544e-43  9.8581394607666729e-42  7.7663037639712365e-26  -1.7232189975289009e-42  6.0524801038688216e-49  -1.5025024160649324e-57  2.9287631822761110e-55  1.2782463128558808e-61  1.6793694798249102e-14  3.6217014332494636e-41  1.0370330405088794e-41  2.2892499708156935e-35  3.8349708907100369e-52  8.8086151880951251e-39  -3.0524559685749799e-47  6.0989330027541209e-19  1.0728953052768209e-36  2.7243190610116989e-39  1.0074263185721712e-50  3.1715527519200325e-24  2.6472304032677571e-50  7.3788808824329648e-48  1.2318117694441231e-25  3.4376566942077893e-54  -1.9027762079016742e-15  1.2133147170953676e-27  1.4789135094208388e-51  2.0999147875052252e-52  -1.0234757951318218e-48  5.6849680699364240e-53  -7.2821546801078760e-32  -4.7099403353176171e-29  9.3945650041496156e-56  1.2949050608674743e-51  9.1938894462368092e-26  2.3904536932191716e-42  8.5626965564559759e-38  4.2680906630842509e-54  7.7254624622948020e-46  9.3455791160845055e-57  1.2795584418699600e-49  5.6103659958960572e-35  4.1007953193687880e-53  1.4444397456166822e-30  7.5104076916535413e-16  6.5139017080438475e-13  1.0960088179577803e-11  9.0976859549600963e-41  -1.2632128699443432e-35  -8.7996032194324065e-26  4.6392280575746538e-55  1.4682340678025027e-54  8.0571589524544045e-54  -1.3454293797056492e-52  2.1700578953505208e-64  4.5244552138161618e-48  6.7543932164650361e-50  2.6667509980609443e-32  6.5820920560575850e-61  -1.1288966451231953e-39  1.5405760904633769e-51  5.5064074458336342e-45  4.3269902334098449e-42  3.1665266676402167e-35  -3.5166371857674864e-32  1.6562789953015474e-09  1.7370108608816725e-57  9.7504664980359255e-42  1.3811188421555116e-28  6.4378796563464097e-29  4.3827170075202265e-55  6.6635225704805174e-21  6.7502888991152848e-22  2.9829616070399906e-21  4.3671705104020932e-25  1.0280384310022977e-45  6.5516629467410110e-30  5.8554110182948770e-40  2.1543034671569547e-36  1.4485296480343243e-43  2.6226232078187774e-46  1.1304967889542866e-51  3.1717550602645139e-34  4.7777025962016302e-30  7.0514065276737491e-15  1.7411487546475400e-48  1.7531224517322121e-19  5.5487723663504337e-24  1.0110114406095735e-55  4.9007622435798362e-38  -1.1659281609631624e-42  4.7755195495696180e-55  1.5381458535711721e-32  1.3640128446942927e-10  -1.2027724383707321e-21  7.4781164165450716e-45  5.2219082961518341e-48  7.1533661842411829e-38  2.3955738669576818e-48  1.0180477209678852e-54  1.9511347929844076e-33  9.5877518958632344e-19  4.5402495317827979e-59  1.6516354474053570e-27  9.6275137186634147e-29  1.3049958488324194e-27  1.1073763255783017e-53  2.1920788675585521e-37  2.6039405901538354e-33  2.0816012725447845e-43  8.2880271695630914e-15  9.1925902548715426e-24  -1.6877946807158170e-54  1.9549913632769136e-32  9.4970982842598357e-46  2.2216674183772187e-49  4.5805654619308155e-52  2.6867750258001069e-29  4.2508058584906111e-26  2.6858028037096845e-40  9.2347183821915602e-46  5.0234426635483612e-50  1.0169164072008619e-52  2.5173750882070019e-21  4.0634072459704030e-36  5.0591318190214521e-53  1.7207449448633605e-50  4.6350772705434820e-51  -2.5560784532556744e-33  1.3607730357432368e-43  6.2087887630415078e-37  1.9221809323762881e-48  -1.0836833924879019e-21  -2.8828915076931890e-55  -1.5309736016241780e-37  2.6778277959922646e-27  5.3928804393215223e-46  5.1106656124915119e-63  1.0271208420458074e-21  4.8146593926211535e-44  2.3650349344768261e-32  6.1074186476560326e-25  5.6039497837542886e-56  3.9044856597122993e-39  -9.2317394143203694e-24  5.4958445823028540e-51  1.0317761160877400e-58  5.3935556722042892e-51  9.6383868911074322e-55  8.4054408130249798e-24  5.9750809599222862e-16  2.4671618085483328e-33  -2.1018374720451266e-17  6.2159222194263731e-43  9.8437944887942376e-37  6.5534357100225766e-29  1.0376980602493280e-52  7.7870030605551319e-52  2.3080838776464046e-29  2.2236253485300637e-49  1.7238628996145155e-20  2.2663117200251212e-37  9.1874584651040467e-14  3.4381301523586987e-49  1.8622791121782894e-18  5.7603693134639943e-21  -3.1065607712365547e-30  5.9041844888149517e-33  -1.6166152836522258e-34  6.8505263455093186e-42  8.5169275324141338e-43  2.7098522656053297e-39  1.4292377065214935e-14  -1.9883009446546659e-55  3.2041335318061647e-57  1.9447913899652184e-59  -4.5436962059916278e-50  8.9854324556917068e-26  2.9348156247385809e-57  4.9042614197445137e-18  -1.0603513265363922e-28  5.0208243403799207e-27  5.8255813675392307e-48  9.7162199470846234e-33  -3.2282217244081146e-36  4.6209895084325610e-51  2.8096774873655122e-35  1.1828228715175319e-57  4.3970939801302870e-54  1.7164110627790463e-44  7.1689493995755688e-54  -1.3340410838468523e-41  7.1164960829726246e-56  1.2992681550752140e-46  5.3015365116020366e-38  3.4378026774182046e-31  1.3892927889146624e-14  -3.9517942610825638e-61  1.4732150437437486e-58  2.1166747983796864e-52  5.2928470254111604e-26  -3.5305894062478165e-40  -4.8297970775892421e-39  2.0866574204513472e-41  1.7576653744550583e-59  4.7652119037658429e-24  4.4421491148652783e-48  4.1332926435239968e-23  2.3320297541589679e-22  1.8013772035079396e-45  -2.6745119176233034e-39  -7.8504644821878465e-44  -9.2893250063138156e-53  -1.3394707620229753e-52  1.7133208009377879e-30  5.4114332207696763e-21  1.2624364331524987e-33  3.9652009066608383e-53  2.8717143825564562e-48  4.7306126028516205e-41  4.9753338308713354e-41  7.0301763455747053e-42  9.3051040188637122e-48  -1.4579000273007927e-44  4.1388542118925318e-53  5.9983854454632186e-50  9.2403617631653377e-33  3.2130530215805445e-58  1.9619454007928471e-47  9.8447231503721077e-48  1.3433492599007445e-44  1.9969141928028548e-58  1.1950245602323120e-56  1.6497851660545429e-57  1.1559100664495248e-60  1.7884227801020298e-47  1.9985058109193323e-51  1.1948296676381126e-23  1.0610420258881872e-23  5.3546319310512331e-38  4.5129471797864080e-53  2.0013500381513442e-56  1.7512419250169260e-40  2.3428767696581424e-61  4.5821218634065587e-59  1.6369883703353192e-31  2.1281884271145163e-33  3.1775080010573482e-57  -1.9053048261994343e-48  3.3025662429434478e-38  7.1931942730805411e-22  2.1906038885970921e-49  5.0942351207656398e-50  9.8088906064329514e-56  2.3275654431940941e-07  8.2390290277389802e-09  1.3863387419977825e-10  9.3023392029805393e-42  1.1798061673138304e-59  1.2760317121704596e-44  -6.0970573763947002e-19  5.5205173851381309e-57  -6.5988453591342476e-51  3.0130625334583817e-39  9.2483909882687057e-40  4.2641849773783302e-49  4.3147583876149034e-63  8.3164289107006084e-41  1.7097084950632781e-55  2.7544970576594271e-60  1.9624716596082927e-17  6.2321883568912436e-33  2.1323666359442941e-40  1.6028986062961213e-51  2.6589195440850706e-55  1.5132313900192744e-38  5.3529221351576865e-48  -6.7306733585895849e-15  4.8001976741203228e-36  1.2456674474145717e-60  1.1844185365584474e-34  3.2556514007678153e-21  1.9212879952515257e-29  3.3624649334809328e-45  1.9041346933449210e-27  2.4887616043363116e-31  1.1884745583572702e-25  4.5341337793980043e-52  9.5035215522475598e-43  9.0055984901837399e-08  -1.2746725159923773e-29  2.5088111993057649e-16  -1.5263641713566201e-18  3.9280182355595508e-18  3.8441417157724114e-13  -6.8093838472330133e-14  1.2444036481132754e-54  2.0039409355917081e-56  3.7230410120191542e-36  8.2147405796067411e-34  1.0271721232236489e-32  1.6272808495163317e-31  1.0458601361056077e-05  1.6676463635878356e-47  3.2143673482338940e-52  3.6333080092167278e-28  2.7477306770865781e-55  7.0098782608140659e-55  2.9698737552427125e-58  1.5071979047558982e-45  1.0662310968405913e-57  3.2385650485235846e-26  2.7962997894673808e-52  1.5089986598749841e-33  6.6070397061846347e-51  1.0258134145772977e-51  -3.2370179594479881e-09  1.1368727711355751e-06  2.8615459235385341e-54  1.1739752998340727e-35  7.3438124583259373e-61  2.7791632861672353e-04  -5.3838565180238530e-46  2.4049700217138386e-60  3.2275255394404486e-18  4.2904237329346589e-19  6.4227125833762444e-39  1.1922056224055713e-49  1.1297284290833284e-35  8.1434121251777520e-26  5.9520222401033963e-60  6.7548072059176658e-13  5.7323969815040808e-55  9.5376847943802000e-51  -4.2739775672461342e-26  1.2516394133714110e-48  4.1896580810706796e-12  -7.4904664310473646e-37  8.4723869116200165e-47  1.5897158207185595e-44  9.1184346338924932e-41  3.7957698363211550e-54  4.3463539042012409e-44  1.6565852808246195e-41  5.2267754861335219e-30  4.2237216211858064e-43  5.1723003795718803e-47  1.6365952708964699e-53  5.9694005242576540e-55  -2.3785210863046981e-46  -2.5855812233793849e-27  2.3835318574466266e-54  2.5812773994007022e-56  5.6925929744727179e-32  6.0270562964697372e-64  1.3580980568402281e-54  7.4380250132380797e-62  -7.9721062249721070e-53  -2.8350593351802536e-54  2.5810693237954594e-55  -1.6241880542917098e-35  -2.8292813478757794e-55  5.1392845175996570e-58  4.8121988993811363e-46  1.4972337863650423e-42  2.8182294309406112e-56  1.3118741054658004e-56  4.5310108752074323e-57  -1.8356358296393090e-22  -7.4037829741347486e-26  -6.7354246068728301e-29  1.6172740070349453e-54  -4.2879202971623675e-15  7.8875333710076474e-25  3.6763126660678589e-49  -1.3512383640856305e-42  -1.7577902345734221e-54  -7.0913086773244432e-11  -1.6713678405233159e-49  3.8390051446831341e-61  1.0367849954866163e-17  4.9222461130772361e-39  5.9411408226838366e-06  -1.5442153063949253e-08  1.2568170018142551e-58  1.3174864904584576e-63  2.3656866315828180e-65  1.3078486827722491e-65  -2.7511754400278924e-32  2.5836487491727003e-56  -6.3627754143062008e-12  2.8099497936272532e-59  7.4091808426135096e-62  3.3181091005903771e-61  3.9236798616137180e-44  3.7517760405340657e-49  1.2155424465922526e-36  4.5375707252085812e-53  3.7013132735370888e-34  2.3536646445332759e-53  1.9537278450400220e-15  3.8509762512929930e-16  1.8246005020347786e-13  1.0395830311760684e-54  -1.7492828870351886e-14  1.1070078571978053e-22  -3.9024480520228176e-13  -4.7346117645880620e-44  2.4787108984928939e-28  5.5727533200005716e-25  1.3611835376740240e-45  -2.7507231190317152e-32  -8.6660942710784142e-34  -2.2797243519565962e-35  -6.2305958466712322e-29  1.5373197609946498e-14  4.9161146714024570e-11  3.6868376031406258e-51  3.1066857442459325e-46  9.1683428171588839e-43  8.4530439843491402e-50  1.7774931203457908e-18  2.4603305144266058e-55  -1.7528982476557646e-33  4.1236769155558245e-45  1.3761090500552633e-29  3.6546109428537224e-20  3.0293906523104204e-38  1.7768795666778314e-43  3.7204249992159309e-34  2.6585344863493120e-24  2.0040686045395697e-27  -9.3228446975702541e-48  2.6392056077592915e-52  2.3435967286039185e-20  2.2958588952061141e-49  1.8647898311209834e-51  7.3023593476421073e-33  2.3892993911135423e-39  7.7436177230499464e-21  4.2939967099925485e-42  6.2296449242889311e-16  9.8980337173557756e-54  2.8894137233908253e-36  2.0001295478187442e-37  2.6363076433123872e-50  7.0913929644663828e-46  4.3522976925565633e-46  4.5493796538484620e-49  1.2021553361447256e-47  5.8766187168034497e-47  -1.1865639918806358e-30  3.3064345666436203e-46  3.2727620742869397e-39  2.4668174608075252e-30  -4.3483609709183617e-41  -1.1636442625657610e-41  2.3357559425562695e-53  5.5121802951028670e-35  3.5127315505175247e-42  1.1595489944594290e-43  -4.4959382187442435e-45  1.1527116979175511e-44  -2.4994208263986354e-35  1.9102257162699135e-35  1.3290988159960895e-38  1.9682852120256234e-28  1.0839402925405833e-53  1.4556472429871445e-49  2.8464098395301361e-50  -4.8097484478717276e-49  -1.0840966535730837e-47  -2.7445730026127016e-49  1.0011836542864700e-53  2.7954712203197881e-40  -1.8952153852062137e-37  5.6075300752707098e-53  3.5244586686184983e-55  9.2724177871446323e-51  1.0106679515109611e-38  3.0269279709538341e-31  -3.4883558360433823e-27  5.2721011557085177e-40  1.5577764894128816e-50  2.4870479155086097e-21  8.2055788578475605e-35  2.6059181960626010e-55  2.7153447143359155e-17  6.1896644859174950e-48  1.7901447571951942e-55  1.2903312240773671e-55  1.6381544147562452e-59  2.9202016064758579e-49  -9.2418735282335578e-54  4.0979409680161121e-31  3.5468801384821500e-40  4.2323856679004964e-35  1.0576338987898581e-27  8.8986270222577784e-49  6.8231669566544523e-51  1.1662337853495237e-39  2.9253149736535316e-57  4.9783206033976079e-28  8.9100470598096070e-38  6.0303945120262925e-31  2.0464356482426290e-29  -8.2717460713282421e-51  -3.1092150940561189e-53  7.0904766185556252e-47  -2.4201035125154146e-54  1.1198740881041802e-45  8.0079048128437914e-57  5.5386216043230761e-60  -2.7023887847565859e-46  8.8067374893232706e-41  2.4617134411415375e-61  1.131687706810293