<?xml version="1.0"?>
<VTKFile type="UnstructuredGrid"  version="0.1"  >
<UnstructuredGrid>
<Piece  NumberOfPoints="6486" NumberOfCells="12696">
<Points>
<DataArray  type="Float64"  NumberOfComponents="3"  format="ascii">0 5 0  0 0 0  5 0 0  5 5 0  2.5 0 0  5 2.5 0  2.5 5 0  0 2.5 0  2.5 2.5 0  0 1.25 0  1.25 0 0  1.25 5 0  0 3.75 0  5 1.25 0  3.75 0 0  5 3.75 0  3.75 5 0  3.541666666666667 1.458333333333333 0  1.458333333333333 3.541666666666667 0  1.875 1.25 0  3.75 3.125 0  1.284722222222222 2.326388888888889 0  2.683189655172414 3.767959770114943 0  0.9375 0.9375 0  4.0625 4.0625 0  0.7252209595959597 3.026357323232324 0  2.763480392156863 0.9129901960784315 0  1.875 4.345238095238095 0  4.345238095238095 1.875 0  4.192708333333333 0.8072916666666664 0  0.8072916666666665 4.192708333333334 0  3.368055555555555 2.326388888888889 0  0.6837606837606839 1.738782051282051 0  3.285485245626782 4.324328415208927 0  2.551239698778062 1.693130150610969 0  1.827256944444444 2.868923611111111 0  3.464875022477093 0.6813924607921316 0  1.942880513719175 2.059558626187995 0  3.04563492063492 2.971230158730159 0  4.375 3.4375 0  2.13639445139758 0.5994472256987903 0  4.272228422619047 2.606956845238095 0  0.625 0 0  0 0.625 0  5 4.375 0  4.375 5 0  0.6400043240752655 2.384646170113389 0  1.347691225855598 1.660875475110776 0  3.515783617857982 3.723905460714006 0  3.125 0 0  1.875 0 0  0.625 5 0  4.375 0 0  5 1.875 0  0 1.875 0  0 3.125 0  1.875 5 0  5 0.625 0  0 4.375 0  3.125 5 0  5 3.125 0  1.489644181965304 0.6007147273217681 0  2.054597701149425 3.742302955665024 0  2.662520990197781 4.39452575763237 0  2.415835363784578 3.165530021913244 0  0.8679986894865213 3.602373689486522 0  1.267459753787878 2.886186079545454 0  4.099702380952381 1.365327380952381 0  1.316964285714286 4.438244047619047 0  3.7915135293491 1.959691594758709 0  2.875141124191255 2.118761176511833 0  3.00418010501169 1.397414179299248 0  0.4081721322167092 3.410647930198662 0  0.4166666666666666 0.9375 0  1.014190407998288 0.4422301359994293 0  1.383260571305984 1.162718286082048 0  4.53125 3.90625 0  4.453125 4.453125 0  3.772848162504192 4.48678272083473 0  2.8125 0.404329517041716 0  0.4538690476190476 0.4538690476190476 0  2.305461739347387 1.04517007574828 0  3.771263799175824 2.624190260297553 0  3.229617768018734 1.809956994202883 0  3.780190884441317 1.025307111692601 0  4.646337365591398 0.9375 0  4.537623451379149 0.4609485750426037 0  1.200477888421151 3.934852888421152 0  0.3536626344086022 4.0625 0  0.4623765486208503 4.539051424957397 0  4.0625 0.353662634408602 0  4.560525106689535 1.390989100915847 0  3.958439078571988 3.619844539285994 0  4.672619047619047 2.1875 0  2.1875 4.672619047619047 0  1.862808494877602 3.325947624431087 0  0.3268135998175443 2.8125 0  4.674181280189791 2.8125 0  2.283233994935276 4.138623547175983 0  0.9375 4.677879119362977 0  3.08488061581743 3.469889594488945 0  3.113427375573758 3.913955730709506 0  1.652847799068813 3.950848935641292 0  2.932652662909449 2.550542739521724 0  3.311350648514189 1.088831994878698 0  0.6770833333333333 1.295851139601139 0  0 1.5625 0  1.047214787840024 1.96818092308125 0  4.183331482095785 3.03958703580843 0  3.4375 5 0  1.071307777252521 3.246275861010018 0  0 2.1875 0  0.386576856303419 2.03125 0  1.713862716483534 2.439783116849799 0  1.775396256975935 1.665976816304977 0  2.231236976948428 1.443917394671254 0  2.373900732409897 2.086930260150635 0  4.114918237574474 2.221646174618671 0  3.661302567757379 4.099620139144836 0  3.378215938602977 2.734494874063393 0  0.9842097536079312 2.597286741306247 0  1.642795138888889 4.672619047619047 0  4.0625 5 0  2.099458800960004 2.567446522665629 0  2.616202751603346 1.297895893940078 0  5 4.6875 0  0.9937554350075428 1.512592975947215 0  2.8125 5 0  3.002695327068194 4.614055254615477 0  3.205627424097207 0.3852436382721472 0  1.678616581261621 0.927556612265266 0  3.365326698305438 3.196943731162083 0  1.554834936170314 3.120009882655813 0  3.108408340729323 0.7797187795784133 0  3.684368918102174 0.3728877601163941 0  2.716214835303553 3.39276351922003 0  2.37718583984784 3.551973401560441 0  0.3750662445374837 1.52191994866787 0  2.679073487930202 2.844160731602957 0  1.557635869750078 1.991068682985722 0  1.812595698561088 0.3839273018252746 0  2.512014721281916 0.6320641118792227 0  2.1875 0 0  2.349973454443689 0.3189980586887866 0  4.6875 3.59375 0  4.636052949022233 3.178355898044465 0  4.6875 5 0  3.345485909784306 4.665765449101383 0  0.536727472389443 3.749603193819277 0  4.349541499640203 1.116201826262156 0  2.886559045931982 1.774013674579691 0  0.6770833333333334 0.7142857142857143 0  1.5625 0 0  4.120842096538671 4.628726497527622 0  2.176157474177018 1.793470423744689 0  2.175650736889416 2.909863021769539 0  4.036616464259081 1.709699085170981 0  3.887974623473683 0.6492597046022868 0  3.4375 0 0  3.70675699592552 2.289666624772415 0  4.697265625 4.208984375 0  2.815177577303495 4.085937578239174 0  4.672619047619047 1.730733296184288 0  4.6875 0 0  5 0.3125 0  0.3125 5 0  0 4.6875 0  0.3276089296588581 2.484526834811734 0  0.712433309515852 2.065138854645612 0  0.6376435912223634 2.711473454001295 0  1.184991292170422 0.7222504400947201 0  1.31884329779317 0.3206944232264773 0  3.683609198994263 3.44428698533042 0  0.3125 0 0  0 0.3125 0  4.231797269642997 3.789141808928991 0  1.564375596050781 1.425998687184973 0  2.007640894175573 0.9032106925568466 0  0.955125897558294 2.276666098587227 0  1.43898735721003 2.611310720271951 0  1.954491523717513 4.040700257877075 0  1.752947649777421 3.652439445419346 0  2.509575750247638 4.678021307664052 0  4.687194709705067 2.499965519538002 0  1.5625 5 0  0.9375 5 0  5 2.8125 0  2.1875 5 0  5 1.5625 0  5 2.1875 0  4.0625 0 0  5 0.9375 0  2.8125 0 0  0.9375 0 0  0 0.9375 0  0 2.8125 0  0 3.4375 0  0 4.0625 0  5 3.4375 0  5 4.0625 0  4.010848109290813 3.306446973933037 0  0.3077461147713075 3.119700563473354 0  4.6796875 4.6796875 0  2.333079012424948 3.845757959077508 0  0.7829771267899832 3.317744656243421 0  1.159100632608513 3.532487125138763 0  0.799066251840424 3.893573750162776 0  1.57326499580282 4.255438189102632 0  0.7309366047093668 0.2991402264438908 0  0.3054777494262156 1.223275888123843 0  4.027475154280377 2.78211326942427 0  2.35270874745988 4.426658168476266 0  3.474236283732569 2.021154281686229 0  4.401414236174444 2.329446628171927 0  3.39403781747337 3.987097102903034 0  1.077524329801934 1.214100792470484 0  4.065611571711903 1.066085524514197 0  2.165399002716117 3.335637450367864 0  3.007639563081306 1.093684039371638 0  4.030818285732145 4.351883315180857 0  3.504115222530889 1.739284194222036 0  1.224503368215566 4.712091441401919 0  3.805634204685714 1.321528442399996 0  4.319233123479386 1.573547993867769 0  1.024007670021325 4.394604704797005 0  3.776400432023095 3.839003324979723 0  2.991819819453308 4.320567175146181 0  0.9782797534072181 2.886406017887129 0  1.763835134082104 0.6602345487826022 0  3.765182288741625 1.631193038541544 0  2.267959593989681 2.345053543725764 0  4.412434895833333 4.168294270833333 0  4.4072265625 4.7255859375 0  2.791493971314009 3.11210833271929 0  3.408766223032414 3.469500900677365 0  1.915147569444444 4.725484476461039 0  2.070301968506271 0.2605666686358055 0  2.767932250651506 1.530295992695836 0  3.280065043173439 1.364863281105779 0  4.45101570110842 2.974157152713635 0  3.521928862999512 2.96990445010402 0  2.552921961347576 4.008414007169315 0  0.2682955376854191 3.657555015841003 0  3.084522868361304 2.310593316718068 0  2.669255823227708 1.939379494498064 0  2.615884629473921 2.238841231570381 0  1.405652091971449 0.8877813821442277 0  3.25151486618811 3.68536115104276 0  1.963741569810629 2.331207252264507 0  4.017297980292599 2.486269171379106 0  3.869168920841219 4.748188103831625 0  3.596868753579134 4.77342723825056 0  2.41262958240343 2.764128584995838 0  1.266750578673391 1.404747710001619 0  1.559243962241121 2.85146506328516 0  3.128799423834764 2.052081657715259 0  0.6770833333333333 0.9778025793650794 0  0.2083333333333333 0.78125 0  1.978224492765132 3.087074731032578 0  4.051448850909273 1.969392119104174 0  1.320577095006813 4.172234780971559 0  3.214261103850064 2.534397293281829 0  0.2635729089754111 1.779234736680035 0  3.510775680035133 4.460728640112889 0  2.603081405968802 0.2432579385496493 0  2.866341315154884 0.6662105505481998 0  3.000919221100777 0.2270278495648781 0  1.298858304121393 2.05917319923859 0  2.020292299736597 1.589794568392338 0  0.7401688396476035 4.470780315741533 0  0.6721783535561408 4.733125588707921 0  3.753712482075402 2.874301339727514 0  3.557348205914658 2.491958694539413 0  1.094565978195436 0.2011034254079851 0  0.9338148378011396 0.6833568465908735 0  2.945530578578538 3.701798332963805 0  3.111707186654356 3.216904195825605 0  1.341791111822685 3.293123262233967 0  1.632939924064587 1.184895891095613 0  0.6335477978936732 3.517393619499591 0  0.5576014611130192 3.210998966942492 0  1.564344196470102 0.3630498725895039 0  2.75362450242839 4.626680495816594 0  3.571304405229554 1.192452351107437 0  3.522934592621944 0.9359134489437148 0  4.453125 3.671875 0  4.765625 3.828125 0  1.055906321410838 4.14310472322957 0  4.795146539102229 0.46875 0  4.767156345199235 0.7178596932040019 0  0.2048534608977711 4.53125 0  0.232843654800765 4.282140306795998 0  0.5393715189906129 4.270810883024032 0  4.329922600274667 0.2750645887059072 0  4.275515096738972 0.5448389557295173 0  4.477747423652795 0.7252838358993123 0  0.2002829820452772 0.46875 0  0.4352678571428572 0.6956845238095237 0  0.5007241582667088 0.2123388122114133 0  4.672890923830735 0.2500902110494848 0  0.4308009280819452 4.783624996516437 0  2.104871305393774 4.438653689007242 0  0.2274454167838428 0.2274454167838428 0  3.446466574593436 0.4359605369011901 0  2.12354112127588 1.217588426759619 0  2.309175236825235 0.7888355970690434 0  2.556178570281936 1.054299163237582 0  0.578683248637
[...]
<PointData  Scalars="f_800-0"> 
<DataArray  type="Float64"  Name="f_800-0"  format="ascii">-4.8999092876533001e-01  -6.5492864312548826e-01  -4.8590645674643529e-01  -4.8052186279883008e-01  -5.7083069772226358e-01  -4.8573872508784838e-01  -4.8733899445447210e-01  -5.7188059676942549e-01  -5.6651164975884938e-01  -6.1433532697925775e-01  -6.1354986216717489e-01  -4.8636845887644098e-01  -5.2895890378973642e-01  -4.8574330868568016e-01  -5.2821488007508621e-01  -4.8599128398170688e-01  -4.8681937570369577e-01  -5.3514465124516419e-01  -5.3633481316845910e-01  -5.9224547238405667e-01  -5.2822042618537535e-01  -5.7755977391643420e-01  -5.2849816384514670e-01  -6.2072565026035964e-01  -5.1244563996534875e-01  -5.5387810802493598e-01  -5.6168828984984787e-01  -5.0945659253630560e-01  -5.0789348386039834e-01  -5.1285730303102073e-01  -5.1525787880067953e-01  -5.4143363207799611e-01  -5.9759978638727318e-01  -5.0960102532817531e-01  -5.6918362903445441e-01  -5.5908300398580568e-01  -5.3768501804636215e-01  -5.8356222652175127e-01  -5.4880050166056649e-01  -5.0714579921795655e-01  -5.8320990524360272e-01  -5.1041591655880081e-01  -6.3487799142257828e-01  -6.3548858314886458e-01  -4.8581581731529494e-01  -4.8627678219912773e-01  -5.7581363083629189e-01  -5.9907045525793579e-01  -5.2714756060944123e-01  -5.4915783722830613e-01  -5.9200035874787083e-01  -4.8897353333590726e-01  -5.0688740474892979e-01  -4.8551810619508251e-01  -5.9305940219571907e-01  -5.5041010916098465e-01  -4.8710170598234503e-01  -4.8582271739629851e-01  -5.1055824129662475e-01  -4.8711039692914915e-01  -4.8577498367821031e-01  -6.0535521766600364e-01  -5.2964375712672562e-01  -5.0733207603626451e-01  -5.4902422491345193e-01  -5.3417508482395559e-01  -5.5885726855321038e-01  -5.1608181910090811e-01  -5.0598243926125663e-01  -5.2682785013027067e-01  -5.5815429167179964e-01  -5.5362418401464741e-01  -5.4069786311643286e-01  -6.2486833359865568e-01  -6.2160442317020492e-01  -6.0813612035034137e-01  -5.0167308412202904e-01  -4.9897014217213759e-01  -5.0376769179520309e-01  -5.6008451755257238e-01  -6.3769624379659362e-01  -5.7762119218754249e-01  -5.2775334373615557e-01  -5.4608284679320307e-01  -5.2699372669126487e-01  -4.9757420508828309e-01  -5.0137128659925800e-01  -5.2285358305243701e-01  -5.1829306105432549e-01  -5.0210388170999598e-01  -5.1744659499735113e-01  -5.0027393950625754e-01  -5.1996321061621464e-01  -4.9670469462696382e-01  -4.9828441126799661e-01  -5.4367428853442212e-01  -5.6119526904141182e-01  -4.9665170724250979e-01  -5.1612193299482789e-01  -4.9739596107688461e-01  -5.3734818991398281e-01  -5.2353162062319691e-01  -5.2245596350297518e-01  -5.5553607035253194e-01  -5.4296327757084806e-01  -6.1263872012390275e-01  -6.0371001363954480e-01  -5.8976694109260086e-01  -5.1376414263617642e-01  -4.8699377732857674e-01  -5.4633593761629173e-01  -5.8242691026853821e-01  -5.8817792516997669e-01  -5.7362124183281238e-01  -5.9335085245477359e-01  -5.8008470469693207e-01  -5.7436754246260802e-01  -5.1565743499046857e-01  -5.1606111780260844e-01  -5.4096519234571894e-01  -5.6846285503856697e-01  -4.9770158934224534e-01  -4.8667025123855479e-01  -5.6888005909605743e-01  -5.6707844517225880e-01  -4.8415733466766403e-01  -6.0506713651708877e-01  -4.8726566664529175e-01  -5.0005847201173192e-01  -5.4650600437954711e-01  -5.9893498783743726e-01  -5.3903405013772798e-01  -5.5080488861314525e-01  -5.4996015811787957e-01  -5.3010088639659336e-01  -5.4114804047295229e-01  -5.3586786110078810e-01  -6.0499620742194005e-01  -5.5697753123595239e-01  -5.8873385164189185e-01  -5.9425460782915418e-01  -5.7024558594579133e-01  -5.8131356782312527e-01  -5.7570113696895142e-01  -4.9648142135122708e-01  -4.9806859982280960e-01  -4.8447895276084957e-01  -4.9790979509767852e-01  -5.2893318263358424e-01  -5.0746693819541533e-01  -5.5793607357608488e-01  -6.2895084896911690e-01  -6.0282076074606017e-01  -4.9825286507300648e-01  -5.8166768117970791e-01  -5.5769825478868362e-01  -5.1824848983832794e-01  -5.2316627834841334e-01  -5.3866047193670674e-01  -5.2978182749404645e-01  -4.9542504418165795e-01  -5.1786912658020967e-01  -4.9652391172920934e-01  -4.9626410461336889e-01  -4.8590250050464762e-01  -4.9034635297968382e-01  -4.9987625648484679e-01  -5.7230105866856840e-01  -5.8655335905978323e-01  -5.6456471838918698e-01  -6.1579066704139718e-01  -6.1118800786618943e-01  -5.2870857978043573e-01  -6.4557270588935745e-01  -6.4625353667205820e-01  -5.1114129289135324e-01  -6.0100500300578297e-01  -5.8772313384164721e-01  -5.7931203082799221e-01  -5.6797788014626782e-01  -5.1956106973336769e-01  -5.3262206094608333e-01  -4.9793628788405730e-01  -4.9618254660777861e-01  -4.8740928909000952e-01  -4.8699337009365551e-01  -4.8581422057113166e-01  -4.8706047080961851e-01  -4.8556691725007900e-01  -4.8559404996508226e-01  -5.1753770520378739e-01  -4.8592342091998847e-01  -5.5990815796839755e-01  -6.2418145156157989e-01  -6.2491973818327418e-01  -5.6107608484547988e-01  -5.3967820433699021e-01  -5.1747144036633419e-01  -4.8588136592448289e-01  -4.8602389982335409e-01  -5.1941548826213568e-01  -5.5060487975570127e-01  -4.9122302050434152e-01  -5.2607670228474734e-01  -5.4395508892578126e-01  -5.3669250883437292e-01  -5.2438388020583759e-01  -5.1223649749459665e-01  -6.3125681216993446e-01  -6.1517311823196330e-01  -5.1896506224294325e-01  -5.0670290842838361e-01  -5.3771080241321223e-01  -5.0584823837899218e-01  -5.2058479136289526e-01  -6.1292208536247039e-01  -5.1717984760881741e-01  -5.4323115020988899e-01  -5.5340216338954062e-01  -5.0658864646327240e-01  -5.3653422115157379e-01  -4.9714157021684829e-01  -5.2619826620213128e-01  -5.0860694904015114e-01  -5.0810560163778451e-01  -5.2122039515495766e-01  -5.0969970371682427e-01  -5.5867206474289155e-01  -5.9603690159953948e-01  -5.2751684441916935e-01  -5.7315247088817711e-01  -5.0359169505512225e-01  -4.9370500486969204e-01  -5.4925050718285706e-01  -5.3399910177454268e-01  -4.9611199967504455e-01  -5.8538156468111036e-01  -5.6183935486463632e-01  -5.4413227480430526e-01  -5.0437622325881293e-01  -5.3586082360561749e-01  -5.2042044173383162e-01  -5.3217107839878708e-01  -5.5104500672012779e-01  -5.6516589795140626e-01  -5.6650974522687958e-01  -6.0823838074252234e-01  -5.3024780675152705e-01  -5.7647678053394058e-01  -5.1915493577473693e-01  -4.9503280869971750e-01  -4.9429943344049859e-01  -5.6146018933550557e-01  -6.0639036420365811e-01  -5.5979176163815225e-01  -5.4960020450928337e-01  -6.2257116291685333e-01  -6.3015819295825592e-01  -5.5168219603981050e-01  -5.1783749631631382e-01  -5.1488006471365522e-01  -5.4656965338016894e-01  -5.9628862110066583e-01  -5.0488084827113633e-01  -5.6724080989789050e-01  -5.5813016959417139e-01  -5.5350623666855125e-01  -5.8662313945018063e-01  -5.8713182633734584e-01  -5.0440108848774512e-01  -4.9555784699676031e-01  -5.2824767624496316e-01  -5.3504640840759299e-01  -6.1884154944197223e-01  -6.2398932867944679e-01  -5.3071435489308083e-01  -5.4337235729178768e-01  -5.4484833250724629e-01  -6.0044364241358272e-01  -5.3717237557796693e-01  -5.4756258364025245e-01  -6.0284535595307598e-01  -4.9953795891531522e-01  -5.3414499071472576e-01  -5.3587354398752152e-01  -5.0440611548415049e-01  -4.9387592387096013e-01  -5.1593869014624705e-01  -4.9252195771710666e-01  -4.9364533443235648e-01  -5.0470961670578374e-01  -5.1064928856681668e-01  -5.1124261426921225e-01  -5.0844823188118726e-01  -5.1019750703955769e-01  -5.0332532500658289e-01  -6.4016590804026718e-01  -6.3207128424888537e-01  -6.3913146863825587e-01  -4.9677231250859155e-01  -4.9607693645187417e-01  -5.0616383642123686e-01  -6.4582239548176634e-01  -5.3819371975683394e-01  -5.8375703497345111e-01  -5.7740138769866733e-01  -5.6905085843322456e-01  -5.2169343935781742e-01  -5.4318273893813207e-01  -5.8005259430897316e-01  -5.2439431402878167e-01  -5.2420640506821670e-01  -4.9419916814659504e-01  -4.9330193478663292e-01  -4.9216841921847210e-01  -6.1529279367190381e-01  -5.2789372248178290e-01  -5.2780150829378181e-01  -5.5135349899123731e-01  -5.0755003182208447e-01  -5.5015891417814389e-01  -5.3016844691677889e-01  -5.9717872306382269e-01  -5.4279370125257675e-01  -5.3657663166079328e-01  -5.0794963988259134e-01  -5.9747094721359428e-01  -5.0424138590995293e-01  -5.1259141618698478e-01  -5.7965205984268375e-01  -4.9326314818668765e-01  -6.0902262280020014e-01  -5.7002308655696154e-01  -5.1462330119291844e-01  -5.1680383711941258e-01  -5.2030980055536757e-01  -4.9270736738909354e-01  -5.5783413603529863e-01  -5.6653933328706285e-01  -4.9110022103846107e-01  -5.0243481738546225e-01  -5.8342858915422735e-01  -5.4387571610380780e-01  -5.4281982215006364e-01  -5.1047382883451520e-01  -5.3329496391445053e-01  -4.9118252342411084e-01  -5.1672294135713259e-01  -5.5972101958204501e-01  -4.9425480252101239e-01  -5.6715019696098690e-01  -6.0512043253576775e-01  -6.1705812574637353e-01  -6.1805041556910734e-01  -5.4296500850080942e-01  -5.4509891386074838e-01  -5.7709334453738548e-01  -4.9108964047647924e-01  -4.9112491531759517e-01  -4.9228526214137786e-01  -4.9622720199429593e-01  -4.8611649123650297e-01  -5.2094828952665118e-01  -5.1040583468527645e-01  -5.6113392337199186e-01  -4.9134059306757888e-01  -5.5148508289658837e-01  -5.1378074245874739e-01  -5.1635728811814252e-01  -5.2577485539461244e-01  -5.6085872445808571e-01  -5.5616595824634052e-01  -6.2928970410363416e-01  -5.0428816413146205e-01  -5.4246691291867521e-01  -5.7846624023758098e-01  -5.7444522942730136e-01  -4.9237987652308668e-01  -5.9373031429187373e-01  -5.9507738282017331e-01  -5.9749423964344439e-01  -5.8753859964809518e-01  -5.2139175476179378e-01  -5.6632937768208480e-01  -5.3603776218271360e-01  -5.5040286495080704e-01  -5.2295194706021786e-01  -5.1308069548937729e-01  -5.0062081414088222e-01  -5.5219617057090864e-01  -5.7022313916780942e-01  -6.1463605878540439e-01  -5.0544716706760218e-01  -5.9460067195029365e-01  -5.9009396274195003e-01  -5.0722808861519220e-01  -5.5406428807813524e-01  -5.4424922201171411e-01  -4.9973336193718149e-01  -5.6263392639082521e-01  -6.2206998907374578e-01  -5.8967554411192280e-01  -5.2260231482654251e-01  -5.1130446705417987e-01  -5.5251873697926168e-01  -5.1247509711997741e-01  -4.9526202443285389e-01  -5.5139080484050618e-01  -5.9968696211898320e-01  -4.9076668537824919e-01  -5.7491325285358441e-01  -5.7184763388487914e-01  -5.7644228800495034e-01  -5.0664432465484099e-01  -5.4014357285056513e-01  -5.5158870187124631e-01  -5.3379503862622746e-01  -6.1115108302643517e-01  -5.8239159438535348e-01  -4.8658138128620654e-01  -5.6811786455664426e-01  -5.2457507214615562e-01  -5.2491837324559798e-01  -5.0487000599152343e-01  -5.6406585266471698e-01  -5.7363918610589637e-01  -5.3013336223572072e-01  -5.3371095865821161e-01  -5.2179512407771900e-01  -5.1612594319829930e-01  -6.0812018852318572e-01  -5.5553333421886153e-01  -4.9234293432547960e-01  -5.0076978458235677e-01  -5.1706058066053384e-01  -5.6988075913363312e-01  -5.2068507076037129e-01  -5.6042339582180201e-01  -5.1647937701495661e-01  -6.0557014621583893e-01  -5.0112665358851116e-01  -5.3871051997356145e-01  -5.8156600783432999e-01  -5.3189661563834711e-01  -4.8926383265524137e-01  -5.9353105338039425e-01  -5.3860866851786859e-01  -5.6020394329868217e-01  -5.9012726665129944e-01  -5.0158619006846272e-01  -5.4254528184880357e-01  -5.8277741741311395e-01  -5.0463576743928085e-01  -4.9605204961348059e-01  -5.0351541858206905e-01  -4.8700949462643905e-01  -5.8731845512526837e-01  -6.0607376722400141e-01  -5.6363358790799167e-01  -6.0251256781712126e-01  -5.3682558647740064e-01  -5.4814719861731265e-01  -5.7014228504252973e-01  -5.1225996904091708e-01  -5.1427740420112866e-01  -5.6363985788123805e-01  -5.0262140054709337e-01  -5.9103074206284523e-01  -5.4848641913885254e-01  -6.1127229338809319e-01  -5.2378596447993009e-01  -6.0292715140112607e-01  -5.9511020042815455e-01  -5.7645719502749515e-01  -5.6446036186906989e-01  -5.6451962307035575e-01  -5.3526272599055680e-01  -5.2961742418786228e-01  -5.4642596340192628e-01  -6.2481651164937924e-01  -4.8775760855883843e-01  -5.0058414189771738e-01  -4.9866961791153414e-01  -5.0199742236046485e-01  -5.7537995548264897e-01  -4.8710593929145235e-01  -6.0417838250785971e-01  -5.8169892700001513e-01  -5.7432301550238873e-01  -5.1113642208196475e-01  -5.5439044675662974e-01  -5.5587378910069396e-01  -5.1293467465698761e-01  -5.5233342397668839e-01  -4.8549287936670321e-01  -4.9735563532390181e-01  -5.2561104657709401e-01  -5.0857078637203257e-01  -5.2693852251911510e-01  -5.0798702593522138e-01  -5.2052262717304254e-01  -5.4604595634370290e-01  -5.7130923646387477e-01  -6.2953746290685131e-01  -4.8581090925135040e-01  -4.9157009125182011e-01  -4.9282403951936871e-01  -5.9148953448184893e-01  -5.3173261864823185e-01  -5.3477516613405862e-01  -5.3279498830214456e-01  -4.9326172840439203e-01  -5.8809250608578922e-01  -5.1364204638797606e-01  -5.8862432930040975e-01  -5.8533675012116537e-01  -5.2111614042742571e-01  -5.3430172072200610e-01  -5.2167383127271949e-01  -4.9185847680654854e-01  -4.9222300700315230e-01  -5.7961298741829426e-01  -5.9990046561489097e-01  -5.6431235450150885e-01  -4.9910138152811107e-01  -5.0655490932801450e-01  -5.2845098124927192e-01  -5.3596035726374713e-01  -5.3168436572021838e-01  -5.2563467903210515e-01  -5.1827608426893013e-01  -5.1015024984068857e-01  -5.1237831451164573e-01  -5.7265035032121347e-01  -4.8572450202220813e-01  -5.1375764142512925e-01  -5.1518184432469349e-01  -5.2207799246297104e-01  -4.9110130306195787e-01  -4.9912061837520078e-01  -4.9189558650257864e-01  -4.8573132804599223e-01  -5.1068649023056667e-01  -5.1197437803028867e-01  -5.8195614024542597e-01  -5.8089063185189249e-01  -5.4383553668480644e-01  -5.0366763352366850e-01  -4.9257825878422412e-01  -5.4083237058534372e-01  -4.9053085683481107e-01  -4.9918349851784505e-01  -5.6376058605439683e-01  -5.5917255041506142e-01  -4.9865971994114022e-01  -5.0751884044806106e-01  -5.3852511468563569e-01  -5.9314345747445807e-01  -5.2215439838827959e-01  -5.0087228046084786e-01  -5.0255237633752325e-01  -6.3325750498830857e-01  -6.2773365344085996e-01  -6.2503026186251021e-01  -5.3059672866072083e-01  -4.9096820811468062e-01  -5.3515997922887004e-01  -5.9836661639054733e-01  -4.9113954201209903e-01  -5.0025816309027593e-01  -5.5237082890535594e-01  -5.3984749072469151e-01  -5.1200225698688551e-01  -4.8878788500015186e-01  -5.4724974803348103e-01  -5.0026603413915138e-01  -4.9132128161600680e-01  -6.0053856844267528e-01  -5.5417699619197003e-01  -5.4116393719535183e-01  -5.0214157611272325e-01  -4.9088796626762321e-01  -5.3648431957624620e-01  -5.2585698640145007e-01  -6.1675149209866742e-01  -5.4845363702779404e-01  -4.8600390510673719e-01  -5.6266953160430988e-01  -5.8919367598377359e-01  -5.6431303866080984e-01  -5.3473379699094892e-01  -5.7012351469883327e-01  -5.6902904533080467e-01  -5.8175044302261725e-01  -5.0240584563780799e-01  -5.2804967768455990e-01  -6.3469526669071619e-01  -5.6461482593461942e-01  -6.0981276999846323e-01  -6.1330418459641955e-01  -6.0911348664468601e-01  -6.1918422657361893e-01  -6.1949850425357400e-01  -4.9103748279051879e-01  -4.8556341108853418e-01  -5.5724468693097784e-01  -5.5708030979455070e-01  -5.6363476810339874e-01  -5.5927187838892600e-01  -6.3519257365830661e-01  -5.2999307118250116e-01  -4.9832234711770823e-01  -5.8668089892292108e-01  -5.0616400501126946e-01  -5.0267096811594403e-01  -4.9975543830485136e-01  -5.2297274307848385e-01  -5.0260735673781787e-01  -5.8192620011279139e-01  -5.1501830225676626e-01  -5.5627588948375373e-01  -5.0229527845994770e-01  -4.9805777250185296e-01  -6.5067726980453644e-01  -6.4977267294717067e-01  -5.1176380136346733e-01  -5.6529036248317455e-01  -4.9494495506914588e-01  -6.4122978844960665e-01  -5.1439765369134027e-01  -4.9045332283578946e-01  -6.0538562755055636e-01  -6.0250307132920966e-01  -5.4068464368962177e-01  -5.1628495193869339e-01  -5.4687206716162440e-01  -5.8278500162974278e-01  -4.8678673406865308e-01  -6.3394083152214009e-01  -5.0510026516780737e-01  -5.1749439651832263e-01  -5.8871093540404451e-01  -5.0999303807286067e-01  -6.1784434834242707e-01  -5.4206008764261893e-01  -5.1079849366152419e-01  -5.1770021365030805e-01  -5.3093434344665169e-01  -5.1212288838518194e-01  -5.3852076253009695e-01  -5.4484011424815082e-01  -5.7173682274965099e-01  -5.3364059888822446e-01  -5.2266000368550303e-01  -4.9641216984823472e-01  -4.9069939808730234e-01  -5.1297102421438090e-01  -5.7182327058425653e-01  -4.9233082326677741e-01  -4.9086880620567053e-01  -5.7606941108427501e-01  -4.8558274276257041e-01  -4.8737480453982468e-01  -4.8678283573253522e-01  -4.9456589158513231e-01  -4.8957809974420946e-01  -4.8769221280103442e-01  -5.4501950640129349e-01  -4.8794303514476994e-01  -4.8582748268754844e-01  -5.3345373501284044e-01  -5.4391246597361009e-01  -4.8567502217563707e-01  -4.8578372166531308e-01  -4.8579524270738200e-01  -5.8775600270992212e-01  -5.7715060160038145e-01  -5.6650624777567316e-01  -4.8714088125355354e-01  -6.0905439455480104e-01  -5.9747636448880281e-01  -5.2284314687975220e-01  -5.2349593852890386e-01  -4.8976034426735837e-01  -6.4019060585136844e-01  -5.0540181814391794e-01  -4.8590994227647394e-01  -6.1886182320248595e-01  -5.5456325328779643e-01  -6.4075637772240757e-01  -6.3024194188813798e-01  -4.8681624827762299e-01  -4.8514418450388869e-01  -4.8278631627871726e-01  -4.8289241366192048e-01  -5.5576654281731086e-01  -4.8715037515190290e-01  -6.1965726234136775e-01  -4.8596599670087759e-01  -4.8613168846820537e-01  -4.8584521194239794e-01  -5.2651883893406770e-01  -5.0734952886532136e-01  -5.4606441900410008e-01  -4.9237190445822526e-01  -5.5552438609017241e-01  -4.9346308687262053e-01  -6.1245377117789457e-01  -6.0911740770768774e-01  -6.1687330259555717e-01  -5.0275158080041737e-01  -6.2686849540569478e-01  -5.9258190758433560e-01  -6.1684375491656718e-01  -5.1962888856696055e-01  -5.7084297755150704e-01  -5.8277467084328571e-01  -5.1456279248051295e-01  -5.5590223554153217e-01  -5.5094021428855333e-01  -5.4615919829034409e-01  -5.6647806296285430e-01  -6.1001434019906475e-01  -6.1984326035514170e-01  -5.0182416860277368e-01  -5.2881246662993731e-01  -5.2470196070112352e-01  -5.0771017363974602e-01  -6.0269053322734445e-01  -4.9141932844852376e-01  -5.5246105771555920e-01  -5.1762556143296456e-01  -5.7516792114538451e-01  -5.9210932561742124e-01  -5.5313355325433733e-01  -5.2126813378571490e-01  -5.5714124475429427e-01  -5.8469383829545563e-01  -5.7841850416295060e-01  -5.2506133160756918e-01  -4.9923516151666486e-01  -5.9490187916667059e-01  -5.0881851779253007e-01  -5.0482019861399186e-01  -5.5681633157935184e-01  -5.4098294546740722e-01  -5.9705950872714642e-01  -5.3748179903731375e-01  -6.1091126846347643e-01  -5.0261842191431916e-01  -5.4225303767556776e-01  -5.3934539701659290e-01  -5.1181586668756018e-01  -5.2446856325989932e-01  -5.2233297690707470e-01  -5.1531370739056204e-01  -5.1618512090776292e-01  -5.1033790791387978e-01  -5.6135097141924972e-01  -5.1733404448064646e-01  -5.3517796891803415e-01  -5.6713504002818316e-01  -5.2938643182748724e-01  -5.2649304678837350e-01  -4.9664379890110955e-01  -5.5452883995547830e-01  -5.3159572319650372e-01  -5.2872019945232807e-01  -5.1558394381730721e-01  -5.2132167820151498e-01  -5.4864265961501180e-01  -5.4644717569741841e-01  -5.3917087807356490e-01  -5.7778378808818787e-01  -5.0808329113182160e-01  -5.0315800175554082e-01  -5.0230656176774591e-01  -5.0627186554416415e-01  -5.0959640080489055e-01  -5.0319957621149658e-01  -5.0008262998102782e-01  -5.4725418870799736e-01  -5.5659629852940684e-01  -5.0312457453568460e-01  -4.9215239210478490e-01  -5.0702006370509178e-01  -5.3967867727947383e-01  -5.5918801949783947e-01  -5.7472869060788845e-01  -5.4580018063994007e-01  -5.1922422726139084e-01  -5.9745200090887496e-01  -5.6513973699248010e-01  -4.9801987405780362e-01  -6.0194556316932812e-01  -5.2668677912723572e-01  -5.092291