<?xml version="1.0"?>
<VTKFile type="UnstructuredGrid"  version="0.1"  >
<UnstructuredGrid>
<Piece  NumberOfPoints="6486" NumberOfCells="12696">
<Points>
<DataArray  type="Float64"  NumberOfComponents="3"  format="ascii">0 2.5 0  0 0 0  2.5 0 0  2.5 2.5 0  1.25 0 0  2.5 1.25 0  1.25 2.5 0  0 1.25 0  1.25 1.25 0  0 0.625 0  0.625 0 0  0.625 2.5 0  0 1.875 0  2.5 0.625 0  1.875 0 0  2.5 1.875 0  1.875 2.5 0  1.770833333333333 0.7291666666666666 0  0.7291666666666666 1.770833333333333 0  0.9375 0.625 0  1.875 1.5625 0  0.642361111111111 1.163194444444444 0  1.341594827586207 1.883979885057471 0  0.46875 0.46875 0  2.03125 2.03125 0  0.3626104797979798 1.513178661616162 0  1.381740196078431 0.4564950980392157 0  0.9375 2.172619047619047 0  2.172619047619047 0.9375 0  2.096354166666667 0.4036458333333332 0  0.4036458333333333 2.096354166666667 0  1.684027777777778 1.163194444444444 0  0.3418803418803419 0.8693910256410255 0  1.642742622813391 2.162164207604464 0  1.275619849389031 0.8465650753054845 0  0.9136284722222221 1.434461805555556 0  1.732437511238546 0.3406962303960658 0  0.9714402568595876 1.029779313093998 0  1.52281746031746 1.485615079365079 0  2.1875 1.71875 0  1.06819722569879 0.2997236128493951 0  2.136114211309524 1.303478422619048 0  0.3125 0 0  0 0.3125 0  2.5 2.1875 0  2.1875 2.5 0  0.3200021620376328 1.192323085056694 0  0.6738456129277992 0.8304377375553881 0  1.757891808928991 1.861952730357003 0  1.5625 0 0  0.9375 0 0  0.3125 2.5 0  2.1875 0 0  2.5 0.9375 0  0 0.9375 0  0 1.5625 0  0.9375 2.5 0  2.5 0.3125 0  0 2.1875 0  1.5625 2.5 0  2.5 1.5625 0  0.7448220909826522 0.3003573636608841 0  1.027298850574712 1.871151477832512 0  1.331260495098891 2.197262878816185 0  1.207917681892289 1.582765010956622 0  0.4339993447432606 1.801186844743261 0  0.6337298768939392 1.443093039772727 0  2.049851190476191 0.6826636904761904 0  0.6584821428571428 2.219122023809524 0  1.89575676467455 0.9798457973793544 0  1.437570562095628 1.059380588255917 0  1.502090052505845 0.6987070896496241 0  0.2040860661083546 1.705323965099331 0  0.2083333333333333 0.46875 0  0.5070952039991439 0.2211150679997147 0  0.6916302856529919 0.5813591430410241 0  2.265625 1.953125 0  2.2265625 2.2265625 0  1.886424081252096 2.243391360417365 0  1.40625 0.202164758520858 0  0.2269345238095238 0.2269345238095238 0  1.152730869673694 0.5225850378741401 0  1.885631899587912 1.312095130148776 0  1.614808884009367 0.9049784971014416 0  1.890095442220658 0.5126535558463003 0  2.323168682795699 0.46875 0  2.268811725689575 0.2304742875213018 0  0.6002389442105756 1.967426444210576 0  0.1768313172043011 2.03125 0  0.2311882743104251 2.269525712478698 0  2.03125 0.176831317204301 0  2.280262553344767 0.6954945504579233 0  1.979219539285994 1.809922269642997 0  2.336309523809524 1.09375 0  1.09375 2.336309523809524 0  0.9314042474388009 1.662973812215543 0  0.1634067999087722 1.40625 0  2.337090640094896 1.40625 0  1.141616997467638 2.069311773587991 0  0.46875 2.338939559681489 0  1.542440307908715 1.734944797244472 0  1.556713687786879 1.956977865354753 0  0.8264238995344066 1.975424467820646 0  1.466326331454725 1.275271369760862 0  1.655675324257095 0.5444159974393489 0  0.3385416666666666 0.6479255698005697 0  0 0.78125 0  0.5236073939200119 0.984090461540625 0  2.091665741047893 1.519793517904215 0  1.71875 2.5 0  0.5356538886262603 1.623137930505009 0  0 1.09375 0  0.1932884281517095 1.015625 0  0.8569313582417669 1.2198915584249 0  0.8876981284879677 0.8329884081524883 0  1.115618488474214 0.7219586973356271 0  1.186950366204949 1.043465130075318 0  2.057459118787237 1.110823087309335 0  1.830651283878689 2.049810069572418 0  1.689107969301489 1.367247437031697 0  0.4921048768039656 1.298643370653124 0  0.8213975694444444 2.336309523809524 0  2.03125 2.5 0  1.049729400480002 1.283723261332814 0  1.308101375801673 0.6489479469700392 0  2.5 2.34375 0  0.4968777175037714 0.7562964879736076 0  1.40625 2.5 0  1.501347663534097 2.307027627307738 0  1.602813712048603 0.1926218191360736 0  0.8393082906308107 0.463778306132633 0  1.682663349152719 1.598471865581041 0  0.7774174680851571 1.560004941327907 0  1.554204170364662 0.3898593897892066 0  1.842184459051087 0.186443880058197 0  1.358107417651776 1.696381759610015 0  1.18859291992392 1.77598670078022 0  0.1875331222687418 0.7609599743339348 0  1.339536743965101 1.422080365801479 0  0.7788179348750389 0.9955343414928611 0  0.9062978492805438 0.1919636509126373 0  1.256007360640958 0.3160320559396114 0  1.09375 0 0  1.174986727221844 0.1594990293443933 0  2.34375 1.796875 0  2.318026474511116 1.589177949022232 0  2.34375 2.5 0  1.672742954892153 2.332882724550692 0  0.2683637361947215 1.874801596909639 0  2.174770749820102 0.5581009131310781 0  1.443279522965991 0.8870068372898454 0  0.3385416666666667 0.3571428571428572 0  0.78125 0 0  2.060421048269335 2.314363248763811 0  1.088078737088509 0.8967352118723447 0  1.087825368444708 1.454931510884769 0  2.018308232129541 0.8548495425854904 0  1.943987311736842 0.3246298523011434 0  1.71875 0 0  1.85337849796276 1.144833312386208 0  2.3486328125 2.1044921875 0  1.407588788651747 2.042968789119587 0  2.336309523809524 0.865366648092144 0  2.34375 0 0  2.5 0.15625 0  0.15625 2.5 0  0 2.34375 0  0.1638044648294291 1.242263417405867 0  0.356216654757926 1.032569427322806 0  0.3188217956111817 1.355736727000647 0  0.5924956460852111 0.36112522004736 0  0.6594216488965849 0.1603472116132387 0  1.841804599497131 1.72214349266521 0  0.15625 0 0  0 0.15625 0  2.115898634821499 1.894570904464496 0  0.7821877980253907 0.7129993435924866 0  1.003820447087786 0.4516053462784233 0  0.477562948779147 1.138333049293613 0  0.719493678605015 1.305655360135975 0  0.9772457618587566 2.020350128938537 0  0.8764738248887107 1.826219722709673 0  1.254787875123819 2.339010653832026 0  2.343597354852534 1.249982759769001 0  0.78125 2.5 0  0.46875 2.5 0  2.5 1.40625 0  1.09375 2.5 0  2.5 0.78125 0  2.5 1.09375 0  2.03125 0 0  2.5 0.46875 0  1.40625 0 0  0.46875 0 0  0 0.46875 0  0 1.40625 0  0 1.71875 0  0 2.03125 0  2.5 1.71875 0  2.5 2.03125 0  2.005424054645407 1.653223486966518 0  0.1538730573856537 1.559850281736677 0  2.33984375 2.33984375 0  1.166539506212474 1.922878979538754 0  0.3914885633949916 1.65887232812171 0  0.5795503163042564 1.766243562569382 0  0.399533125920212 1.946786875081388 0  0.7866324979014098 2.127719094551316 0  0.3654683023546834 0.1495701132219454 0  0.1527388747131078 0.6116379440619215 0  2.013737577140188 1.391056634712135 0  1.17635437372994 2.213329084238133 0  1.737118141866284 1.010577140843115 0  2.200707118087222 1.164723314085963 0  1.697018908736685 1.993548551451517 0  0.5387621649009668 0.6070503962352419 0  2.032805785855952 0.5330427622570983 0  1.082699501358059 1.667818725183932 0  1.503819781540653 0.5468420196858188 0  2.015409142866072 2.175941657590429 0  1.752057611265444 0.869642097111018 0  0.612251684107783 2.356045720700959 0  1.902817102342857 0.6607642211999982 0  2.159616561739693 0.7867739969338844 0  0.5120038350106624 2.197302352398502 0  1.888200216011548 1.919501662489862 0  1.495909909726654 2.16028358757309 0  0.489139876703609 1.443203008943564 0  0.8819175670410521 0.3301172743913011 0  1.882591144370812 0.8155965192707721 0  1.133979796994841 1.172526771862882 0  2.206217447916667 2.084147135416667 0  2.20361328125 2.36279296875 0  1.395746985657004 1.556054166359645 0  1.704383111516207 1.734750450338683 0  0.9575737847222222 2.36274223823052 0  1.035150984253136 0.1302833343179028 0  1.383966125325753 0.7651479963479179 0  1.64003252158672 0.6824316405528895 0  2.22550785055421 1.487078576356817 0  1.760964431499756 1.48495222505201 0  1.276460980673788 2.004207003584658 0  0.1341477688427096 1.828777507920502 0  1.542261434180652 1.155296658359034 0  1.334627911613854 0.9696897472490321 0  1.30794231473696 1.119420615785191 0  0.7028260459857245 0.4438906910721139 0  1.625757433094055 1.84268057552138 0  0.9818707849053143 1.165603626132254 0  2.0086489901463 1.243134585689553 0  1.934584460420609 2.374094051915812 0  1.798434376789567 2.38671361912528 0  1.206314791201715 1.382064292497919 0  0.6333752893366955 0.7023738550008095 0  0.7796219811205605 1.42573253164258 0  1.564399711917382 1.026040828857629 0  0.3385416666666666 0.4889012896825397 0  0.1041666666666667 0.390625 0  0.989112246382566 1.543537365516289 0  2.025724425454636 0.9846960595520872 0  0.6602885475034063 2.086117390485779 0  1.607130551925032 1.267198646640915 0  0.1317864544877056 0.8896173683400176 0  1.755387840017567 2.230364320056445 0  1.301540702984401 0.1216289692748247 0  1.433170657577442 0.3331052752740999 0  1.500459610550388 0.113513924782439 0  0.6494291520606965 1.029586599619295 0  1.010146149868299 0.794897284196169 0  0.3700844198238017 2.235390157870766 0  0.3360891767780704 2.36656279435396 0  1.876856241037701 1.437150669863757 0  1.778674102957329 1.245979347269706 0  0.5472829890977179 0.1005517127039925 0  0.4669074189005698 0.3416784232954367 0  1.472765289289269 1.850899166481903 0  1.555853593327178 1.608452097912802 0  0.6708955559113426 1.646561631116984 0  0.8164699620322933 0.5924479455478063 0  0.3167738989468366 1.758696809749795 0  0.2788007305565096 1.605499483471246 0  0.7821720982350511 0.181524936294752 0  1.376812251214195 2.313340247908297 0  1.785652202614777 0.5962261755537186 0  1.761467296310972 0.4679567244718574 0  2.2265625 1.8359375 0  2.3828125 1.9140625 0  0.5279531607054191 2.071552361614785 0  2.397573269551114 0.234375 0  2.383578172599618 0.3589298466020009 0  0.1024267304488855 2.265625 0  0.1164218274003825 2.141070153397999 0  0.2696857594953064 2.135405441512016 0  2.164961300137334 0.1375322943529536 0  2.137757548369486 0.2724194778647587 0  2.238873711826398 0.3626419179496562 0  0.1001414910226386 0.234375 0  0.2176339285714286 0.3478422619047619 0  0.2503620791333544 0.1061694061057066 0  2.336445461915368 0.1250451055247424 0  0.2154004640409726 2.3918124
[...]
<PointData  Scalars="f_49-0"> 
<DataArray  type="Float64"  Name="f_49-0"  format="ascii">-7.1020356231897763e-03  -1.3282239923495170e-02  -5.9528989779970513e-03  -5.1911796571001605e-03  -9.5851284063798101e-03  -6.1620513657228747e-03  -7.3686808241515654e-03  -1.0736955847767656e-02  -8.1460620478558503e-03  -1.2533312286483210e-02  -1.1486066959513449e-02  -7.2369955274633581e-03  -8.8478454482920962e-03  -5.8918633493890808e-03  -7.5997440786841081e-03  -6.1951331214489544e-03  -7.1872529986617834e-03  -8.2295518205930378e-03  -9.3224379474214480e-03  -1.0117760439878373e-02  -7.3679895194159063e-03  -1.0955928003030144e-02  -8.8552214671353494e-03  -9.1673822311663464e-03  -6.3347307013687376e-03  -1.0033735177061364e-02  -9.3609859279198508e-03  -8.2453169080020788e-03  -7.0318862804852680e-03  -7.0252363266517532e-03  -8.3320155961195286e-03  -8.4150161354930603e-03  -1.1808521152544675e-02  -7.9874542032091923e-03  -9.4877658927797117e-03  -1.0175340425592747e-02  -8.0880612582547827e-03  -8.8179343600683913e-03  -7.5442924391867037e-03  -6.8789287853290243e-03  -1.0228382336548630e-02  -7.2733876013093175e-03  -1.2247583584547391e-02  -1.3286720609321453e-02  -5.6806126669440814e-03  -6.2692103872714882e-03  -1.0886497444379273e-02  -1.0154005499313468e-02  -7.0424234032247920e-03  -8.5099910815215930e-03  -1.0526914402887565e-02  -7.0967650671109155e-03  -6.6238986935225411e-03  -5.9481085266962219e-03  -1.1526465747717858e-02  -9.8344776649321852e-03  -7.2950906931601948e-03  -5.8524828122055155e-03  -7.9923783028413315e-03  -7.3441907531980703e-03  -6.2471078356961069e-03  -1.1129818870545108e-02  -9.0217914122265371e-03  -8.1341664844540255e-03  -9.2616069749151507e-03  -9.2385547555695214e-03  -1.0222107680211935e-02  -7.2514914401706253e-03  -8.0169279412279880e-03  -7.8980457065732021e-03  -8.8937587870658863e-03  -9.0230649980701863e-03  -9.4580013518836270e-03  -1.2691987559542811e-02  -1.1621526590787017e-02  -9.4024304371247338e-03  -6.3161402688953310e-03  -5.8423588438310881e-03  -7.1749179758797592e-03  -9.1236910265733526e-03  -8.1385039982683222e-03  -1.0036307024514834e-02  -7.8929772810655517e-03  -8.7371421697033883e-03  -7.6737673835574451e-03  -6.3555189344014261e-03  -6.4927803935118768e-03  -8.7820357734993745e-03  -8.4322136435612417e-03  -7.7662330298361318e-03  -7.1959742129804301e-03  -6.5452536660876980e-03  -6.6773968782524850e-03  -6.5523092472909317e-03  -7.7916355169689510e-03  -9.5840298793024685e-03  -1.0332086517401895e-02  -6.6791985334352950e-03  -8.5026047798048409e-03  -7.6217024754505654e-03  -7.8611000732087283e-03  -8.2146673381641427e-03  -8.7888128430945300e-03  -8.0540098202805509e-03  -8.5427975416570868e-03  -1.2203043890532075e-02  -1.2037896260688963e-02  -1.1408296421176398e-02  -7.3042230300153100e-03  -7.3316782616609129e-03  -9.7146450853985763e-03  -1.1117548810452963e-02  -1.1362247143764598e-02  -1.0390661231518229e-02  -8.8346356264712555e-03  -9.8988109619537260e-03  -8.4859669343473488e-03  -7.4203833988983631e-03  -7.0650934636308036e-03  -7.9218865143198276e-03  -1.0603613213210317e-02  -7.7321536979394279e-03  -6.8219129379225116e-03  -9.3241082463479501e-03  -9.5854016177969494e-03  -5.3561423979885531e-03  -1.1505314208532069e-02  -7.3641186226098675e-03  -7.8270150123379185e-03  -8.4478135272767086e-03  -1.0738310973174918e-02  -7.2219003496687114e-03  -9.8811083154591584e-03  -8.7755097983129964e-03  -7.6823405596828341e-03  -8.7794809413431520e-03  -9.2353161638886287e-03  -1.2091744811499407e-02  -8.0457786829888044e-03  -1.0222340728997617e-02  -1.0658998205866580e-02  -9.6943357353191234e-03  -1.0074911848639423e-02  -9.9415277766884986e-03  -6.5546717312788142e-03  -6.7633680661513453e-03  -5.6064179790017510e-03  -7.7019868576208303e-03  -8.9709208216459755e-03  -6.7898928491863346e-03  -9.1636823704145786e-03  -9.3064501001004756e-03  -1.0964265983762052e-02  -6.5307881768446700e-03  -8.9687482008460832e-03  -9.6059037339938334e-03  -7.5006388818616987e-03  -7.4446950003198972e-03  -8.0735872315310393e-03  -8.0377883735447044e-03  -5.9219132678623079e-03  -8.4771167967105342e-03  -6.4109812633462541e-03  -6.3231253835756528e-03  -5.9253232242043371e-03  -7.0868741491375408e-03  -7.4291791435708828e-03  -1.0732397071417920e-02  -1.1378788437245844e-02  -1.0452546307068818e-02  -1.0907336681144048e-02  -1.1367584099468524e-02  -6.8866651863692188e-03  -1.2749252549106345e-02  -1.3889033861683388e-02  -6.4531455634492096e-03  -9.0518608795910095e-03  -1.0416189140828145e-02  -1.1095965916179520e-02  -1.0589495709233586e-02  -8.6613105825617282e-03  -9.1636859493501640e-03  -7.8054452911442383e-03  -6.6440700424358059e-03  -7.2627811448419339e-03  -7.1328261091613910e-03  -6.2321433541789465e-03  -7.3336379096087890e-03  -5.9633968790120881e-03  -6.0569171413386094e-03  -7.1893359938692818e-03  -5.8666344622092760e-03  -8.9053224104876389e-03  -1.1884172997032566e-02  -1.2916979006478898e-02  -1.0333792733816285e-02  -9.3963470186695028e-03  -8.4630062582823976e-03  -6.2847493179465815e-03  -5.9705186041243974e-03  -7.1265716296355346e-03  -9.8692910359718649e-03  -5.5802359552826995e-03  -8.8936681353363814e-03  -9.6799182304272442e-03  -9.3247271768963341e-03  -8.7853006473487712e-03  -8.3517647922486445e-03  -1.1744105047077232e-02  -1.2509637170596159e-02  -7.5807661158155161e-03  -8.1503479420390462e-03  -8.3628360003163912e-03  -7.0144021840860974e-03  -7.6198104109125179e-03  -9.6321940338078282e-03  -7.2708996421411969e-03  -9.5529877701884883e-03  -8.9902966383513250e-03  -6.5003940544656547e-03  -8.3234522411574675e-03  -7.6071481552943505e-03  -7.7358886270853270e-03  -6.9659084918828312e-03  -8.0501489212576223e-03  -6.6597065854714201e-03  -8.1730998579046515e-03  -1.0217204195673514e-02  -1.0733675882277369e-02  -7.8492228960286778e-03  -8.4383461017383254e-03  -5.9850375803891156e-03  -5.9680092759740585e-03  -8.1109297368763631e-03  -7.1114523975830861e-03  -7.6710559354089833e-03  -1.0313722980768039e-02  -9.3870414700544906e-03  -8.6001175860344631e-03  -7.0427038659179736e-03  -7.5521673263088474e-03  -8.6621062507219980e-03  -9.1200463792529482e-03  -8.5717127959646245e-03  -9.1502185979779327e-03  -8.3840049950387931e-03  -1.0620224096006053e-02  -7.6747796918483066e-03  -9.4220389065759365e-03  -7.6388562100606419e-03  -7.1191335045125330e-03  -7.4562585630425391e-03  -8.7041573168232505e-03  -9.5480496312855632e-03  -1.0276925376554983e-02  -8.8313395594930184e-03  -1.1199913217952686e-02  -1.3102400279595977e-02  -9.8845543165577976e-03  -7.4604931501542600e-03  -8.4158469470533431e-03  -8.2294144502209725e-03  -1.1738133006766700e-02  -7.6830689868994757e-03  -9.4380271524260994e-03  -9.1517481342908349e-03  -8.7367037853027570e-03  -1.1098148999434334e-02  -9.2888547156993514e-03  -7.8985599417125182e-03  -7.4973019701218392e-03  -7.7099220874225390e-03  -8.1622249392846319e-03  -1.1646863259532420e-02  -9.9865051890535451e-03  -8.4428877249481966e-03  -7.4560953219695962e-03  -9.6143596394948540e-03  -9.9075932692825434e-03  -9.3360763317614694e-03  -9.7968216798134909e-03  -1.1036200420443469e-02  -7.8267739943551403e-03  -8.1385273827177269e-03  -8.0832278466106463e-03  -6.6217935395948540e-03  -6.3161916509269856e-03  -8.4476453807177283e-03  -6.0620910088600970e-03  -6.1974388037211777e-03  -7.7509836167902963e-03  -8.1762700121960422e-03  -8.1685433459023783e-03  -6.8014632321292930e-03  -6.9112171211994913e-03  -6.6698270389864882e-03  -1.2949260143783696e-02  -1.1662740591469484e-02  -1.1464175350283849e-02  -6.2427623698110930e-03  -7.3972525407569531e-03  -8.1313536826781024e-03  -7.0317374484926455e-03  -8.1203750737688166e-03  -1.0172067174053969e-02  -9.9610025707133325e-03  -9.6331239468875861e-03  -8.6407895250751078e-03  -7.5114954248148361e-03  -1.0708771238531036e-02  -8.7010182187000750e-03  -7.4479130732279953e-03  -6.2656257741685976e-03  -6.2398608497808324e-03  -5.6199926254915057e-03  -9.5408754403691030e-03  -8.9891194014791488e-03  -8.9746187497151252e-03  -8.9169006097042265e-03  -7.0721334278253988e-03  -7.8032088212442131e-03  -7.7790071539055585e-03  -1.1678519416744099e-02  -9.5239324432484992e-03  -9.2965221025140855e-03  -6.8912961030256174e-03  -1.0803843836637539e-02  -6.9372916989977928e-03  -8.3314125786326833e-03  -1.0993514995739343e-02  -6.3289710730386672e-03  -1.2256983457636731e-02  -1.0708257131111690e-02  -6.8879233829585640e-03  -6.4527449813105821e-03  -7.3918600707442621e-03  -7.5663485224709056e-03  -1.0179584956086474e-02  -1.0546683686349322e-02  -6.4306695100018558e-03  -6.9254752039656980e-03  -9.8517503295757983e-03  -8.3200967083687048e-03  -8.5727498016159014e-03  -6.8971047926164328e-03  -7.8445736885368010e-03  -6.5097627689393771e-03  -8.0992978345610384e-03  -8.3913107522834186e-03  -7.5048910034802444e-03  -1.0166548287398915e-02  -1.2112582934199083e-02  -1.0900007170052616e-02  -1.2461043107886356e-02  -8.4562960224415177e-03  -9.6199121554513458e-03  -1.0917874217503034e-02  -6.4235197200558716e-03  -6.3217780487983587e-03  -7.5622753761319644e-03  -7.3175688623390370e-03  -5.3623489440182345e-03  -7.4268906220154272e-03  -7.2980471167240178e-03  -9.3129672499656976e-03  -6.4928622780174401e-03  -8.7927853981461558e-03  -7.6050916850842242e-03  -8.5305364918802241e-03  -8.9030952751172690e-03  -7.9593613225832967e-03  -1.0137180692701005e-02  -1.0302431299993670e-02  -6.0858047707613499e-03  -8.0875269004470583e-03  -8.5915913118215503e-03  -9.0921067784232607e-03  -7.5270346124743934e-03  -1.1153742239619487e-02  -9.3150180213481329e-03  -9.0713010763734583e-03  -8.6920293360616373e-03  -7.5813568028452972e-03  -1.0432396082043200e-02  -9.2823333256544568e-03  -9.6401529160314303e-03  -8.7729192988683317e-03  -8.3863933290218521e-03  -6.6746262872544870e-03  -9.9624737933043956e-03  -9.6748731072980702e-03  -1.1403877327727428e-02  -8.0490023503037682e-03  -1.1696646947209842e-02  -9.0889081536887090e-03  -6.2004648518919287e-03  -7.7102353536529014e-03  -8.4069284047942738e-03  -6.7542725383303269e-03  -9.8995746672510959e-03  -1.2812948244469017e-02  -1.1397919005824262e-02  -7.7285688463150700e-03  -7.2490304921949307e-03  -8.6023531113817286e-03  -7.2957097779944441e-03  -7.6277221420003706e-03  -9.8790056018829096e-03  -1.1337397952281074e-02  -6.1221517976255040e-03  -9.8983544923084109e-03  -9.7020522732794469e-03  -9.5825302855161824e-03  -6.7459516844008910e-03  -9.5260331070088911e-03  -9.9101313039488582e-03  -7.9258315866077168e-03  -1.1345676344976827e-02  -1.1182209022037164e-02  -7.1532555476818017e-03  -8.5640141444436758e-03  -8.6291389341095030e-03  -6.7232567026440588e-03  -7.9576429257147731e-03  -1.0429123035221827e-02  -1.0803356604688849e-02  -9.1154629293646039e-03  -7.0459204473146695e-03  -7.1128035203191923e-03  -6.6517749439132454e-03  -1.1188199025739101e-02  -9.1524805286512315e-03  -7.4974120140937402e-03  -7.8142055252643471e-03  -7.1691512360294593e-03  -9.6539533159426920e-03  -8.7010889240476588e-03  -9.0892121579880386e-03  -8.3433496627361315e-03  -1.1117606074569786e-02  -6.5367011301056639e-03  -9.3589978342190176e-03  -8.5579611814781843e-03  -7.8340156023135911e-03  -5.7539791041293763e-03  -1.0372193501697961e-02  -7.3213105606643051e-03  -9.2792628554491368e-03  -1.0511291087810617e-02  -6.4640093107895900e-03  -9.3535659414914086e-03  -1.1137936518189281e-02  -8.0203228971910262e-03  -6.1530675048130853e-03  -6.7444986999561718e-03  -7.2904896586534129e-03  -9.9036584678201915e-03  -1.1959067077610019e-02  -9.2234055954881836e-03  -1.1999018856413832e-02  -8.4713207731373450e-03  -8.7837223892084215e-03  -1.0658511766710935e-02  -6.8926618575360166e-03  -7.0815228379447386e-03  -1.0399033289853161e-02  -7.9244268501948104e-03  -1.1559116273044488e-02  -8.7610985614312905e-03  -1.2363160387692616e-02  -7.4048432550788204e-03  -1.0961422018401308e-02  -1.0472725753818248e-02  -9.9549398459516311e-03  -9.4452616400772082e-03  -9.4131523610594906e-03  -9.0429105970077899e-03  -8.9983593345344861e-03  -8.8710693488975728e-03  -1.1858440014895362e-02  -7.1253214422739696e-03  -6.8673413893480121e-03  -6.0975861398986772e-03  -7.7997591504594772e-03  -1.0913971352402829e-02  -7.3383252337368638e-03  -1.0309543542825102e-02  -1.0170578040874519e-02  -1.0772942495618786e-02  -8.2523827155054821e-03  -1.0028647369784443e-02  -9.0649055596686984e-03  -7.0912659518655363e-03  -8.9501697430043100e-03  -5.9533280920995024e-03  -6.7373320594923030e-03  -7.8666909048889788e-03  -7.3274016126407384e-03  -8.8588602755066206e-03  -6.1378559155774292e-03  -7.4201011795344629e-03  -8.6302729124454608e-03  -8.2743994374433350e-03  -1.2005460379391828e-02  -5.8597569487312895e-03  -6.1346140903651104e-03  -7.5516159914229084e-03  -1.0529125554816363e-02  -9.0989369249572499e-03  -9.2049355893386031e-03  -8.1712550912177231e-03  -6.8150813643838275e-03  -1.0419055663483671e-02  -8.3683708896949184e-03  -1.0391122251265704e-02  -1.1341175159161420e-02  -7.6928983206505886e-03  -9.1508142882627732e-03  -8.6902114274184615e-03  -7.3637637359595083e-03  -7.4214535865127131e-03  -1.0100723934620682e-02  -1.0894540717348043e-02  -8.1428342245444176e-03  -6.5133787649740739e-03  -8.1108317163869383e-03  -9.0183397714447468e-03  -8.2862665949267628e-03  -8.1233346820010939e-03  -7.1202338718890463e-03  -8.4587583752622295e-03  -6.7204088463715880e-03  -7.0598294634471176e-03  -9.7084744310092560e-03  -5.9296279652706835e-03  -7.3101235297132446e-03  -7.2705493491749505e-03  -7.6708198859030529e-03  -6.3890890177435902e-03  -6.4541546891828906e-03  -6.4970700407963019e-03  -5.9546340030685067e-03  -8.2999010425551020e-03  -6.9519571357992607e-03  -1.1131288739605411e-02  -1.1151204644519519e-02  -8.6410843982931296e-03  -7.8648459956204755e-03  -7.4884660103854694e-03  -8.2589778608802983e-03  -5.7977398655417421e-03  -5.8356120232982466e-03  -9.3200381041503889e-03  -9.0945790402204383e-03  -6.3826105650615595e-03  -8.0221343735050171e-03  -9.3672818703663847e-03  -1.0647517317242779e-02  -6.9196047644055755e-03  -7.8661951451409143e-03  -6.5191837254111639e-03  -8.9116505732757360e-03  -1.1325891169254927e-02  -9.0801494601457575e-03  -9.0665285797213724e-03  -6.0720542899131121e-03  -7.3200111376460876e-03  -1.1734237878230289e-02  -6.1440289044842672e-03  -7.5870176709263082e-03  -8.7870511188715573e-03  -8.3947841749647048e-03  -8.2891010801538888e-03  -5.4635684196007103e-03  -7.6735095465431105e-03  -7.4997729576736149e-03  -6.0280033666253790e-03  -1.1931376776256143e-02  -9.9571654421984797e-03  -9.1127564078333431e-03  -6.8775556136529770e-03  -6.1716598401032399e-03  -9.2868890801417799e-03  -7.5385285087544692e-03  -1.1556462981632480e-02  -8.8139623291101973e-03  -6.1139230173803292e-03  -8.1312902740745142e-03  -1.1486678882413854e-02  -1.0461163063983514e-02  -7.4754636025387965e-03  -1.0628432539689297e-02  -8.7203429237275882e-03  -1.0207488877174192e-02  -6.9472575769424991e-03  -7.8971695141560501e-03  -9.7964750562825106e-03  -1.0445501416798805e-02  -1.1076468581565614e-02  -1.1486622734626950e-02  -1.1259649686825701e-02  -9.7027067144568116e-03  -1.1160375658216466e-02  -6.2829091042777901e-03  -6.0140175497639054e-03  -8.5974510744551962e-03  -9.9206248131555839e-03  -8.8658191172697881e-03  -1.0240060734578216e-02  -1.3049439299594670e-02  -6.9376551325387925e-03  -6.7348299335740448e-03  -1.0378001761306896e-02  -6.4101269049718053e-03  -6.5926088411006551e-03  -6.0132169122876404e-03  -8.7031205203700664e-03  -6.3415490533764319e-03  -9.4413602065580807e-03  -6.6386077510161507e-03  -9.1838142533289518e-03  -7.9641832852885390e-03  -7.7779027454379463e-03  -1.2847242266684503e-02  -1.3928480314751277e-02  -6.2931756875664879e-03  -9.2870439593698440e-03  -5.6719942556809882e-03  -7.9285920894351866e-03  -8.1745066060487995e-03  -6.0299922151438789e-03  -9.0853829734971157e-03  -9.2449667542684327e-03  -8.5184965687720247e-03  -7.2758828054830188e-03  -9.7275562598119099e-03  -1.0240732106685484e-02  -7.0819419813252992e-03  -1.2222339446962022e-02  -6.5648945437665317e-03  -7.1781477111881736e-03  -1.0424472653931472e-02  -7.1805140114118557e-03  -1.2009035951824556e-02  -9.5293543026661251e-03  -8.2723053890039564e-03  -8.5863439700740504e-03  -9.0780622149643671e-03  -6.5404064954899905e-03  -8.0746006123895951e-03  -7.4134185911740947e-03  -9.6799100091125509e-03  -8.8401852078294624e-03  -7.5948722925954079e-03  -6.6594001377913627e-03  -6.4001867670208023e-03  -8.1912178816250653e-03  -1.0745834507097294e-02  -7.5556968997252108e-03  -6.4381231204449245e-03  -9.7749974345322944e-03  -5.9115954262918269e-03  -7.2739190118317277e-03  -6.5724074950705797e-03  -7.2842578780072881e-03  -7.1072492167264028e-03  -7.3500298895356805e-03  -9.6153886357765728e-03  -7.2629368412276364e-03  -6.2865136769877988e-03  -7.7795331715953256e-03  -8.2746293701881565e-03  -6.1016303076018930e-03  -6.2117893733227318e-03  -6.2468580972490848e-03  -1.1302611414555040e-02  -1.0914981812459324e-02  -1.0540975545222490e-02  -7.3480989217513722e-03  -1.2343998360263573e-02  -1.0735885582109334e-02  -7.4004116829295905e-03  -8.6749099767724647e-03  -7.0749381888214327e-03  -1.2534851380091909e-02  -7.6622720623322283e-03  -5.8747028419163620e-03  -1.1717672467014500e-02  -8.7493930429607056e-03  -1.3580843545400588e-02  -1.3113526290634165e-02  -7.2725716216811270e-03  -5.5034243597391896e-03  -5.2651323463721294e-03  -5.3502489314619138e-03  -1.0037520314777750e-02  -7.3317785522258221e-03  -1.2705200033639631e-02  -6.2907780356166714e-03  -5.8609257332020472e-03  -5.8541922267577439e-03  -7.8179006287195981e-03  -8.1576085074284051e-03  -9.7033024517395577e-03  -7.4492807601357642e-03  -9.0984561428484202e-03  -7.5842995997728044e-03  -9.1365494760029947e-03  -1.0705270991866260e-02  -9.4817898687958972e-03  -6.7362718186910848e-03  -1.1930098304737288e-02  -9.5677640999830005e-03  -1.2579627078725585e-02  -8.5655390951313668e-03  -1.0615702610742433e-02  -1.0222225776619303e-02  -8.4703001060504220e-03  -1.0166497222041221e-02  -9.8637395642135004e-03  -9.7189589166276676e-03  -1.0523249849947501e-02  -1.2309046366678289e-02  -1.2674423179213648e-02  -6.8493488790598864e-03  -8.1082654652256479e-03  -8.8331008567331358e-03  -7.1003272103920710e-03  -1.0408336690365538e-02  -6.4495874064093659e-03  -9.9904316784890021e-03  -8.5572512274423584e-03  -8.8498253088888021e-03  -1.1596749784943934e-02  -7.9407104229352234e-03  -8.7284562100729077e-03  -9.1578035605158897e-03  -1.0776326281851380e-02  -9.9470088025291024e-03  -7.5519643326208887e-03  -6.6140494317955502e-03  -1.1482413195459871e-02  -7.0439535425159093e-03  -6.7545344033018229e-03  -1.0143507197789114e-02  -8.4666471413213772e-03  -9.7199919593260672e-03  -8.0787714834097309e-03  -9.8258331202329026e-03  -6.9113451834793508e-03  -9.5888366237253404e-03  -9.4124035257945205e-03  -8.1376384547324036e-03  -7.7633212545828809e-03  -7.7311197001788314e-03  -7.4337202349891631e-03  -7.5168268271466323e-03  -8.2559906987558565e-03  -1.0335050636110624e-02  -8.5270248166193809e-03  -9.3164622108140114e-03  -9.4929314546876968e-03  -9.0269428247164250e-03  -8.8973759434358111e-03  -7.7383527746726936e-03  -8.9442014457845297e-03  -8.0473444206451555e-03  -7.8044801183851115e-03  -8.3940317689408257e-03  -8.7010153445188487e-03  -9.8423088547493903e-03  -9.7439880615515558e-03  -9.4644162755210641e-03  -8.6322740538535211e-03  -6.8210783430774687e-03  -8.0153980044747261e-03  -7.9652504430227679e-03  -8.0217756763683156e-03  -8.0808171403519303e-03  -7.8691827347868448e-03  -7.7869485260562586e-03  -7.5941587632982381e-03  -9.0196113087881707e-03  -7.0003741893924732e-03  -6.2086946463267689e-03  -7.0991617890866256e-03  -9.4410632482150782e-03  -1.0272350116659125e-02  -1.0819261763130507e-02  -7.9570629403265484e-03  -7.2600110146737330e-03  -8.9215132761657386e-03  -9.3566457050202577e-03  -7.6318636645128640e-03  -1.1831184130985909e-02  -7.5731452736532614e-03  -6.33314201