<?xml version="1.0"?>
<VTKFile type="UnstructuredGrid"  version="0.1"  >
<UnstructuredGrid>
<Piece  NumberOfPoints="6486" NumberOfCells="12696">
<Points>
<DataArray  type="Float64"  NumberOfComponents="3"  format="ascii">0 2.5 0  0 0 0  2.5 0 0  2.5 2.5 0  1.25 0 0  2.5 1.25 0  1.25 2.5 0  0 1.25 0  1.25 1.25 0  0 0.625 0  0.625 0 0  0.625 2.5 0  0 1.875 0  2.5 0.625 0  1.875 0 0  2.5 1.875 0  1.875 2.5 0  1.770833333333333 0.7291666666666666 0  0.7291666666666666 1.770833333333333 0  0.9375 0.625 0  1.875 1.5625 0  0.642361111111111 1.163194444444444 0  1.341594827586207 1.883979885057471 0  0.46875 0.46875 0  2.03125 2.03125 0  0.3626104797979798 1.513178661616162 0  1.381740196078431 0.4564950980392157 0  0.9375 2.172619047619047 0  2.172619047619047 0.9375 0  2.096354166666667 0.4036458333333332 0  0.4036458333333333 2.096354166666667 0  1.684027777777778 1.163194444444444 0  0.3418803418803419 0.8693910256410255 0  1.642742622813391 2.162164207604464 0  1.275619849389031 0.8465650753054845 0  0.9136284722222221 1.434461805555556 0  1.732437511238546 0.3406962303960658 0  0.9714402568595876 1.029779313093998 0  1.52281746031746 1.485615079365079 0  2.1875 1.71875 0  1.06819722569879 0.2997236128493951 0  2.136114211309524 1.303478422619048 0  0.3125 0 0  0 0.3125 0  2.5 2.1875 0  2.1875 2.5 0  0.3200021620376328 1.192323085056694 0  0.6738456129277992 0.8304377375553881 0  1.757891808928991 1.861952730357003 0  1.5625 0 0  0.9375 0 0  0.3125 2.5 0  2.1875 0 0  2.5 0.9375 0  0 0.9375 0  0 1.5625 0  0.9375 2.5 0  2.5 0.3125 0  0 2.1875 0  1.5625 2.5 0  2.5 1.5625 0  0.7448220909826522 0.3003573636608841 0  1.027298850574712 1.871151477832512 0  1.331260495098891 2.197262878816185 0  1.207917681892289 1.582765010956622 0  0.4339993447432606 1.801186844743261 0  0.6337298768939392 1.443093039772727 0  2.049851190476191 0.6826636904761904 0  0.6584821428571428 2.219122023809524 0  1.89575676467455 0.9798457973793544 0  1.437570562095628 1.059380588255917 0  1.502090052505845 0.6987070896496241 0  0.2040860661083546 1.705323965099331 0  0.2083333333333333 0.46875 0  0.5070952039991439 0.2211150679997147 0  0.6916302856529919 0.5813591430410241 0  2.265625 1.953125 0  2.2265625 2.2265625 0  1.886424081252096 2.243391360417365 0  1.40625 0.202164758520858 0  0.2269345238095238 0.2269345238095238 0  1.152730869673694 0.5225850378741401 0  1.885631899587912 1.312095130148776 0  1.614808884009367 0.9049784971014416 0  1.890095442220658 0.5126535558463003 0  2.323168682795699 0.46875 0  2.268811725689575 0.2304742875213018 0  0.6002389442105756 1.967426444210576 0  0.1768313172043011 2.03125 0  0.2311882743104251 2.269525712478698 0  2.03125 0.176831317204301 0  2.280262553344767 0.6954945504579233 0  1.979219539285994 1.809922269642997 0  2.336309523809524 1.09375 0  1.09375 2.336309523809524 0  0.9314042474388009 1.662973812215543 0  0.1634067999087722 1.40625 0  2.337090640094896 1.40625 0  1.141616997467638 2.069311773587991 0  0.46875 2.338939559681489 0  1.542440307908715 1.734944797244472 0  1.556713687786879 1.956977865354753 0  0.8264238995344066 1.975424467820646 0  1.466326331454725 1.275271369760862 0  1.655675324257095 0.5444159974393489 0  0.3385416666666666 0.6479255698005697 0  0 0.78125 0  0.5236073939200119 0.984090461540625 0  2.091665741047893 1.519793517904215 0  1.71875 2.5 0  0.5356538886262603 1.623137930505009 0  0 1.09375 0  0.1932884281517095 1.015625 0  0.8569313582417669 1.2198915584249 0  0.8876981284879677 0.8329884081524883 0  1.115618488474214 0.7219586973356271 0  1.186950366204949 1.043465130075318 0  2.057459118787237 1.110823087309335 0  1.830651283878689 2.049810069572418 0  1.689107969301489 1.367247437031697 0  0.4921048768039656 1.298643370653124 0  0.8213975694444444 2.336309523809524 0  2.03125 2.5 0  1.049729400480002 1.283723261332814 0  1.308101375801673 0.6489479469700392 0  2.5 2.34375 0  0.4968777175037714 0.7562964879736076 0  1.40625 2.5 0  1.501347663534097 2.307027627307738 0  1.602813712048603 0.1926218191360736 0  0.8393082906308107 0.463778306132633 0  1.682663349152719 1.598471865581041 0  0.7774174680851571 1.560004941327907 0  1.554204170364662 0.3898593897892066 0  1.842184459051087 0.186443880058197 0  1.358107417651776 1.696381759610015 0  1.18859291992392 1.77598670078022 0  0.1875331222687418 0.7609599743339348 0  1.339536743965101 1.422080365801479 0  0.7788179348750389 0.9955343414928611 0  0.9062978492805438 0.1919636509126373 0  1.256007360640958 0.3160320559396114 0  1.09375 0 0  1.174986727221844 0.1594990293443933 0  2.34375 1.796875 0  2.318026474511116 1.589177949022232 0  2.34375 2.5 0  1.672742954892153 2.332882724550692 0  0.2683637361947215 1.874801596909639 0  2.174770749820102 0.5581009131310781 0  1.443279522965991 0.8870068372898454 0  0.3385416666666667 0.3571428571428572 0  0.78125 0 0  2.060421048269335 2.314363248763811 0  1.088078737088509 0.8967352118723447 0  1.087825368444708 1.454931510884769 0  2.018308232129541 0.8548495425854904 0  1.943987311736842 0.3246298523011434 0  1.71875 0 0  1.85337849796276 1.144833312386208 0  2.3486328125 2.1044921875 0  1.407588788651747 2.042968789119587 0  2.336309523809524 0.865366648092144 0  2.34375 0 0  2.5 0.15625 0  0.15625 2.5 0  0 2.34375 0  0.1638044648294291 1.242263417405867 0  0.356216654757926 1.032569427322806 0  0.3188217956111817 1.355736727000647 0  0.5924956460852111 0.36112522004736 0  0.6594216488965849 0.1603472116132387 0  1.841804599497131 1.72214349266521 0  0.15625 0 0  0 0.15625 0  2.115898634821499 1.894570904464496 0  0.7821877980253907 0.7129993435924866 0  1.003820447087786 0.4516053462784233 0  0.477562948779147 1.138333049293613 0  0.719493678605015 1.305655360135975 0  0.9772457618587566 2.020350128938537 0  0.8764738248887107 1.826219722709673 0  1.254787875123819 2.339010653832026 0  2.343597354852534 1.249982759769001 0  0.78125 2.5 0  0.46875 2.5 0  2.5 1.40625 0  1.09375 2.5 0  2.5 0.78125 0  2.5 1.09375 0  2.03125 0 0  2.5 0.46875 0  1.40625 0 0  0.46875 0 0  0 0.46875 0  0 1.40625 0  0 1.71875 0  0 2.03125 0  2.5 1.71875 0  2.5 2.03125 0  2.005424054645407 1.653223486966518 0  0.1538730573856537 1.559850281736677 0  2.33984375 2.33984375 0  1.166539506212474 1.922878979538754 0  0.3914885633949916 1.65887232812171 0  0.5795503163042564 1.766243562569382 0  0.399533125920212 1.946786875081388 0  0.7866324979014098 2.127719094551316 0  0.3654683023546834 0.1495701132219454 0  0.1527388747131078 0.6116379440619215 0  2.013737577140188 1.391056634712135 0  1.17635437372994 2.213329084238133 0  1.737118141866284 1.010577140843115 0  2.200707118087222 1.164723314085963 0  1.697018908736685 1.993548551451517 0  0.5387621649009668 0.6070503962352419 0  2.032805785855952 0.5330427622570983 0  1.082699501358059 1.667818725183932 0  1.503819781540653 0.5468420196858188 0  2.015409142866072 2.175941657590429 0  1.752057611265444 0.869642097111018 0  0.612251684107783 2.356045720700959 0  1.902817102342857 0.6607642211999982 0  2.159616561739693 0.7867739969338844 0  0.5120038350106624 2.197302352398502 0  1.888200216011548 1.919501662489862 0  1.495909909726654 2.16028358757309 0  0.489139876703609 1.443203008943564 0  0.8819175670410521 0.3301172743913011 0  1.882591144370812 0.8155965192707721 0  1.133979796994841 1.172526771862882 0  2.206217447916667 2.084147135416667 0  2.20361328125 2.36279296875 0  1.395746985657004 1.556054166359645 0  1.704383111516207 1.734750450338683 0  0.9575737847222222 2.36274223823052 0  1.035150984253136 0.1302833343179028 0  1.383966125325753 0.7651479963479179 0  1.64003252158672 0.6824316405528895 0  2.22550785055421 1.487078576356817 0  1.760964431499756 1.48495222505201 0  1.276460980673788 2.004207003584658 0  0.1341477688427096 1.828777507920502 0  1.542261434180652 1.155296658359034 0  1.334627911613854 0.9696897472490321 0  1.30794231473696 1.119420615785191 0  0.7028260459857245 0.4438906910721139 0  1.625757433094055 1.84268057552138 0  0.9818707849053143 1.165603626132254 0  2.0086489901463 1.243134585689553 0  1.934584460420609 2.374094051915812 0  1.798434376789567 2.38671361912528 0  1.206314791201715 1.382064292497919 0  0.6333752893366955 0.7023738550008095 0  0.7796219811205605 1.42573253164258 0  1.564399711917382 1.026040828857629 0  0.3385416666666666 0.4889012896825397 0  0.1041666666666667 0.390625 0  0.989112246382566 1.543537365516289 0  2.025724425454636 0.9846960595520872 0  0.6602885475034063 2.086117390485779 0  1.607130551925032 1.267198646640915 0  0.1317864544877056 0.8896173683400176 0  1.755387840017567 2.230364320056445 0  1.301540702984401 0.1216289692748247 0  1.433170657577442 0.3331052752740999 0  1.500459610550388 0.113513924782439 0  0.6494291520606965 1.029586599619295 0  1.010146149868299 0.794897284196169 0  0.3700844198238017 2.235390157870766 0  0.3360891767780704 2.36656279435396 0  1.876856241037701 1.437150669863757 0  1.778674102957329 1.245979347269706 0  0.5472829890977179 0.1005517127039925 0  0.4669074189005698 0.3416784232954367 0  1.472765289289269 1.850899166481903 0  1.555853593327178 1.608452097912802 0  0.6708955559113426 1.646561631116984 0  0.8164699620322933 0.5924479455478063 0  0.3167738989468366 1.758696809749795 0  0.2788007305565096 1.605499483471246 0  0.7821720982350511 0.181524936294752 0  1.376812251214195 2.313340247908297 0  1.785652202614777 0.5962261755537186 0  1.761467296310972 0.4679567244718574 0  2.2265625 1.8359375 0  2.3828125 1.9140625 0  0.5279531607054191 2.071552361614785 0  2.397573269551114 0.234375 0  2.383578172599618 0.3589298466020009 0  0.1024267304488855 2.265625 0  0.1164218274003825 2.141070153397999 0  0.2696857594953064 2.135405441512016 0  2.164961300137334 0.1375322943529536 0  2.137757548369486 0.2724194778647587 0  2.238873711826398 0.3626419179496562 0  0.1001414910226386 0.234375 0  0.2176339285714286 0.3478422619047619 0  0.2503620791333544 0.1061694061057066 0  2.336445461915368 0.1250451055247424 0  0.2154004640409726 2.3918124
[...]
<PointData  Scalars="f_124-0"> 
<DataArray  type="Float64"  Name="f_124-0"  format="ascii">2.8435017502409787e-01  5.0624110800128086e-01  2.6609093680182200e-01  2.5583181428023122e-01  3.9487720865867182e-01  2.5840763441030062e-01  2.8748564575302205e-01  4.2436293230031363e-01  4.0005549783090771e-01  4.9432276477939574e-01  4.6780636230002154e-01  2.8671473674228787e-01  3.5245075639811141e-01  2.5837832074279399e-01  3.2638267612525940e-01  2.6166475784096316e-01  2.8229487505983458e-01  3.3775546814100704e-01  3.6589248889824982e-01  4.3789253191597449e-01  3.3157126976552848e-01  4.3183021253397630e-01  3.4955312376831760e-01  4.9516279435190663e-01  3.0727342593142798e-01  3.9512014312557192e-01  3.8276509206125797e-01  3.2161959552883823e-01  2.9211032486711774e-01  3.0046455475008449e-01  3.2856162933792898e-01  3.5190108041707230e-01  4.6599927875452674e-01  3.1680338859742713e-01  3.9871800738891844e-01  4.0168135588466336e-01  3.3943554527778930e-01  4.3134219032304938e-01  3.6832884040908231e-01  2.9530420210242980e-01  4.1864192510756620e-01  2.9875746215800830e-01  5.0173137272892787e-01  5.1931110629113308e-01  2.6260322583766982e-01  2.7246682335194311e-01  4.2881658975146991e-01  4.6231902860009333e-01  3.3453860660002765e-01  3.5851820887878216e-01  4.3190833247701083e-01  2.8369889751967498e-01  2.9372924298134906e-01  2.5711281940121311e-01  4.5554524259832702e-01  3.9014146037763059e-01  2.8665650213067384e-01  2.6180693467410626e-01  3.1702387419834205e-01  2.8548618468886422e-01  2.5979118466504092e-01  4.5662673133632492e-01  3.5295844441391128e-01  3.1661708980917652e-01  3.8085762013222441e-01  3.6368153805042214e-01  4.0136457568117290e-01  3.0469096821818170e-01  3.1512025530629306e-01  3.2385329477901986e-01  3.8214787930865490e-01  3.6941580427400333e-01  3.7431638429531316e-01  5.1262164661650478e-01  4.8432732547337870e-01  4.6889025381225802e-01  2.8557444833356754e-01  2.8408216773347461e-01  3.0204845002347658e-01  3.7701161906229325e-01  5.1696255892195930e-01  4.1028904220292878e-01  3.2879150714598498e-01  3.5839861895726643e-01  3.2212447490463708e-01  2.7531170531906679e-01  2.8330120219909494e-01  3.4459133499314337e-01  3.3497925751460239e-01  3.0777431107544828e-01  3.0873618304844719e-01  2.7930286802800924e-01  3.1756902267862674e-01  2.7312748422076943e-01  3.0297328941944912e-01  3.7566199993494448e-01  4.0761150907994925e-01  2.7538874064118862e-01  3.3168006016173607e-01  3.0127981215159799e-01  3.5539838354205089e-01  3.3731402689203904e-01  3.4408138834777946e-01  3.7808679104288301e-01  3.5120827536958266e-01  4.9113978066013464e-01  4.7286951369880331e-01  4.5188283158982168e-01  3.0558218432529821e-01  2.8483396122949906e-01  3.8225822229980810e-01  4.3969479134205613e-01  4.4729004294889513e-01  4.2344251684369871e-01  4.4453737652684056e-01  4.1685072677884955e-01  4.1021031791508661e-01  3.0549127637418172e-01  3.1853527808286819e-01  3.5257330383284147e-01  4.1690179461927257e-01  3.0272158146268308e-01  2.7902844226690632e-01  4.0924847822314486e-01  3.9235042303446671e-01  2.6031510052995033e-01  4.7630237301212558e-01  2.8650526080303862e-01  3.0380601756810055e-01  3.5422309069913099e-01  4.4766712541924403e-01  3.5034804834539129e-01  3.8714299064135921e-01  3.6164634393164607e-01  3.2707177203112131e-01  3.6703697210007186e-01  3.6222531281189330e-01  4.7776440713902829e-01  3.8572337626510417e-01  4.4534301782233360e-01  4.3622119871407811e-01  3.9656628051754556e-01  4.1316346656605774e-01  4.0621688220380259e-01  2.7694435781084942e-01  2.7914411233336195e-01  2.6465590595312999e-01  2.9974105237415655e-01  3.5486200351676750e-01  2.9038787873080546e-01  3.7870939129546016e-01  5.1195862072302201e-01  4.4909975985298839e-01  2.8960251103167878e-01  4.2205895987757064e-01  3.9531800468695516e-01  3.0941909673584012e-01  3.1658867434929566e-01  3.4264329687877870e-01  3.3061503900328015e-01  2.7631125797552980e-01  3.3158220711621572e-01  2.7243673376372146e-01  2.7974205004808911e-01  2.6469473046220304e-01  2.8417709396466145e-01  2.9756397458828410e-01  4.2390805928530317e-01  4.4727914904196969e-01  4.1181173704066543e-01  4.7651795626622973e-01  4.6498415584374858e-01  3.3233223146333035e-01  5.1221001650874998e-01  5.1271797712421041e-01  3.0209865405456865e-01  4.5664648458885115e-01  4.2685649850285251e-01  4.3568235954271939e-01  4.1606348776571672e-01  3.3861233151557074e-01  3.5919804261635802e-01  3.0294422545030714e-01  2.7394726194577967e-01  2.8658748932471506e-01  2.8433633886026388e-01  2.5934015658032739e-01  2.8709919271982010e-01  2.5846871068639632e-01  2.5794743058605318e-01  3.1056377284698000e-01  2.5942497296120509e-01  3.7484140081797307e-01  4.8751051674893653e-01  5.1231018785980920e-01  4.0819738220544860e-01  3.7225051531479458e-01  3.3593946319886442e-01  2.6107537769523331e-01  2.6218640361421730e-01  3.1575573991533656e-01  3.9030190122900504e-01  2.7128511347819484e-01  3.4691184408563913e-01  3.8032942903618616e-01  3.6665403941992358e-01  3.4677594980463639e-01  3.2678538249431999e-01  5.0047671399423643e-01  4.9592596273122608e-01  3.1441880160731250e-01  3.1701875590023026e-01  3.4367433568754974e-01  2.8958047034340123e-01  3.2980864149273847e-01  4.8395531631819166e-01  3.0700475735302979e-01  3.7468837815042455e-01  3.6818940754473273e-01  3.0040823465992361e-01  3.4129997738898754e-01  2.9964961126104883e-01  3.2157887966248394e-01  2.9271766823580236e-01  3.1765898362052269e-01  3.2239101837994982e-01  3.1867998873621672e-01  4.0171673518663670e-01  4.3958182798233569e-01  3.2343717378718323e-01  4.1198288476762129e-01  2.8999824261041296e-01  2.7834092413705119e-01  3.7437808459639599e-01  3.4360093290807853e-01  2.9967671024932696e-01  4.2223469362934085e-01  3.8497715219228251e-01  3.5235263646868020e-01  2.9010783179217309e-01  3.4485829914532035e-01  3.3773366086896300e-01  3.6033674689581141e-01  3.6937044420549908e-01  3.9331892919490824e-01  3.9623145993422815e-01  4.6458177168080828e-01  3.4405700000838613e-01  4.2195188691003482e-01  3.1386545340882666e-01  2.9027284950902982e-01  2.9208231640852012e-01  3.9598122592368112e-01  4.7233909831979987e-01  4.0260034640923609e-01  3.6632752632912513e-01  5.0562578793794088e-01  5.2058678909089029e-01  3.8870613554063516e-01  3.0798908534142527e-01  3.3046079690362451e-01  3.6233104315868281e-01  4.6156039211963701e-01  3.0794971107144925e-01  3.8925881895617942e-01  3.7565759892152839e-01  3.6530146984309902e-01  4.4536094033664081e-01  4.3025645747398611e-01  3.1283996817128684e-01  2.9681159477084246e-01  3.3071030587767264e-01  3.4160832076998149e-01  4.7782904140703697e-01  4.9457810665298740e-01  3.4972090052289512e-01  3.6044256271139763e-01  3.7841292033881030e-01  4.5253611536771304e-01  3.6852951038164172e-01  3.8593965864024604e-01  4.5077652439224175e-01  3.0424926836525712e-01  3.3566414180590232e-01  3.3699417824202155e-01  2.9121863196482545e-01  2.7251026439557990e-01  3.3232487216075707e-01  2.6997677103335638e-01  2.7068441043090113e-01  3.0826195058805422e-01  3.2359659447716382e-01  3.2398820513020243e-01  2.9493419306760066e-01  2.9725535945583792e-01  2.8660248045011383e-01  5.1592366638973652e-01  5.2085050024839097e-01  5.1331462028206343e-01  2.7762241602459442e-01  2.9343642476778781e-01  3.1625811880944593e-01  5.1250100732388515e-01  3.4142605577201052e-01  4.2136033549891710e-01  4.0852591251183029e-01  3.9453084185596082e-01  3.4119279969507837e-01  3.5706555449141264e-01  4.3372919313044561e-01  3.4561704577641356e-01  3.1941059348230855e-01  2.7007917369299095e-01  2.6785916265952414e-01  2.7094228005336590e-01  4.7988666126346430e-01  3.5204905945067877e-01  3.5293913762145740e-01  3.6590823713098353e-01  2.9596608132859215e-01  3.6935869795065007e-01  3.2765656000476850e-01  4.6458014141942816e-01  3.7411915347710956e-01  3.6400403207036486e-01  2.9155775788138916e-01  4.4174190767994853e-01  2.8720517888928110e-01  3.2504083373839232e-01  4.3418032585543237e-01  2.6762436247350746e-01  4.8401568502019504e-01  4.1979290186317392e-01  3.0779846832795288e-01  3.1349096567344414e-01  3.1241511398455291e-01  2.9405733869938544e-01  4.0155805731832145e-01  4.1642959445699179e-01  2.6559158101164149e-01  2.8503436767905677e-01  4.3559091920558796e-01  3.5029309935727887e-01  3.5115336003916064e-01  3.0945461652933615e-01  3.3357289944966129e-01  2.6774504271836730e-01  3.2672760740301038e-01  3.8467344425777061e-01  2.9498468479531920e-01  4.1296851273743429e-01  4.7902172871897036e-01  4.9471500577576449e-01  4.9991404670350637e-01  3.4968447447658751e-01  3.8163506372692119e-01  4.3126090279341445e-01  2.6535781895818256e-01  2.6436596175196292e-01  2.9299009559779998e-01  2.9235083566905179e-01  2.6225202591401731e-01  3.1922346931303908e-01  3.0036776732729320e-01  3.8158457700362053e-01  2.7990933515498045e-01  3.6341053719332012e-01  3.1974138500504096e-01  3.3327114092511267e-01  3.4874308213398270e-01  3.8981572440227269e-01  4.0021875067077373e-01  5.0233387489864489e-01  2.9390608053164563e-01  3.6479188914982641e-01  4.2103637156978529e-01  4.0922835179550976e-01  2.9177673141573335e-01  4.5632358255098793e-01  4.4443220178551968e-01  4.5423377107787238e-01  4.3447711938941447e-01  3.1374202427245040e-01  4.1252338313031200e-01  3.6287676560570420e-01  3.8474802517572237e-01  3.4285764944194913e-01  3.2753433798637349e-01  2.7972772129395079e-01  3.9037900880940307e-01  3.9648546949680952e-01  4.7146683836566450e-01  3.1474860496699081e-01  4.6026075992279802e-01  4.4297993941759128e-01  2.9545818767818249e-01  3.7782329313696100e-01  3.5063459987759366e-01  2.8233906574811141e-01  4.0401955162598208e-01  5.0831755276058432e-01  4.4993825867908227e-01  3.1719651537844901e-01  2.9878849851051331e-01  3.8208538480914755e-01  3.0043515379613717e-01  2.9562835102763169e-01  3.8886529284554350e-01  4.6694125463854652e-01  2.7150839026187096e-01  4.0621158057915246e-01  4.0199103972042766e-01  4.1187180601655171e-01  2.9004731774022768e-01  3.7372997051275686e-01  3.9052954969449344e-01  3.3950601288573640e-01  4.8604449082807299e-01  4.4027996002345854e-01  2.8517335453735326e-01  4.0474721096435340e-01  3.4185770115838193e-01  3.2702413614285003e-01  3.1047807960000112e-01  4.0958179061598776e-01  4.2510496028044720e-01  3.5689683185016191e-01  3.4090309133660435e-01  3.2709998077749763e-01  3.1554063633997237e-01  4.5743692490257687e-01  3.8955339062967553e-01  2.9310362939701484e-01  3.0652177797759766e-01  3.0737739452559637e-01  3.9507764815848945e-01  3.4029698716515555e-01  3.7694048273294267e-01  3.2846492687980533e-01  4.5432978389234652e-01  2.8075650647936851e-01  3.7103372866215711e-01  4.2419254977708720e-01  3.3052825732802787e-01  2.7048629193863988e-01  4.5405956664480190e-01  3.5241377865912815e-01  3.8050557935917223e-01  4.2953350369185445e-01  2.8681174068759507e-01  3.7232795450057776e-01  4.3941411058136071e-01  3.1177229460032574e-01  2.7616213904523590e-01  2.8417875349936861e-01  2.8638697763379112e-01  4.2975534777859370e-01  4.8017660181572280e-01  4.0122520223147690e-01  4.7188958502041356e-01  3.5863841834827115e-01  3.5973481604443086e-01  4.2033361595370955e-01  3.0143730383147238e-01  3.0508753743460049e-01  4.0951337985824188e-01  3.0962871741446318e-01  4.5540978787154923e-01  3.5952195388915553e-01  4.8986307776719246e-01  3.1723092866155833e-01  4.5393961311215519e-01  4.4175193355367526e-01  4.0736604630554163e-01  3.8665978988904320e-01  3.8572203768252367e-01  3.6032619366205826e-01  3.5234824441013113e-01  3.7507795363957847e-01  4.8798465273946623e-01  2.8390492511313270e-01  2.9580139702869968e-01  2.8625951239339203e-01  3.0771430683418044e-01  4.2846647236108948e-01  2.8512650195815847e-01  4.5852368572205693e-01  4.1615726273289316e-01  4.2613342869471954e-01  3.2470049878312618e-01  3.9349824042764869e-01  3.7209020271040860e-01  3.0510935915155435e-01  3.6940025366991358e-01  2.5770181386180219e-01  2.7712456563077015e-01  3.2442614810940268e-01  3.0974471163656009e-01  3.5031005705321761e-01  2.9875969539971170e-01  3.1201044625814828e-01  3.6039486878817634e-01  4.0636374803905473e-01  4.9334882456145618e-01  2.5841566064227922e-01  2.6606836636312331e-01  2.9421047043377185e-01  4.3141196185728603e-01  3.5928377684390889e-01  3.6427323598584205e-01  3.3444525182025325e-01  2.8542441797397206e-01  4.2663162204434363e-01  3.2593033553739870e-01  4.2965530230179677e-01  4.4599963020981892e-01  3.1577659978514411e-01  3.6231272994414937e-01  3.4227650058507270e-01  2.9109059366393153e-01  2.9304061184261637e-01  4.1267856359810168e-01  4.4577267371102453e-01  3.9415861347584413e-01  2.7710126718535366e-01  3.1740353574442876e-01  3.5346328456157672e-01  3.4180702684287856e-01  3.3298390434198200e-01  3.2758247061444867e-01  3.3604252310299271e-01  3.0100450622700586e-01  2.9850358848938457e-01  3.9924410936445665e-01  2.5855916439209542e-01  3.0224310148245165e-01  3.0361026011563402e-01  3.1564806840416171e-01  2.6814488805469133e-01  2.8156819968556746e-01  2.6890904001722371e-01  2.6569961231351807e-01  3.2367750463219835e-01  2.9780072674878560e-01  4.3813863275006260e-01  4.3785161579829474e-01  3.5525139608781614e-01  3.0817185418755555e-01  2.9090827174026201e-01  3.5211658588733363e-01  2.6865899862976728e-01  2.8267630244732639e-01  3.8970325082126694e-01  3.8208316790068658e-01  2.7825880050340046e-01  3.1777028540905528e-01  3.6758613310274107e-01  4.3625556621333222e-01  3.2092297841891171e-01  3.0670778047574926e-01  2.8617156231699137e-01  5.1875272337566447e-01  5.1439847404769357e-01  5.0303414724674922e-01  3.5397635388543686e-01  2.6996602484730453e-01  3.4389321088980807e-01  4.6337454112699727e-01  2.6511305772445254e-01  3.0099211206334386e-01  3.6451407867312330e-01  3.4519895780576820e-01  3.2299558453055138e-01  2.6570999381987981e-01  3.6777493976960068e-01  3.0043351483855674e-01  2.6915677153653272e-01  4.7076076418531709e-01  3.9284581216171088e-01  3.6861572133003850e-01  2.8359786347133986e-01  2.6362621265983199e-01  3.6473032814726675e-01  3.3672553016548207e-01  4.7473496938477366e-01  3.6101892591467616e-01  2.6191695359437350e-01  3.9458778934536304e-01  4.5141977224569807e-01  4.1043459267140853e-01  3.4882342911451547e-01  4.1932994394000428e-01  3.9997685890123791e-01  4.1733620332686239e-01  2.8593784858453880e-01  3.2503481759198316e-01  5.1360181063510546e-01  4.1202271097391235e-01  4.6526286664803462e-01  4.6859000572832615e-01  4.6199306882312730e-01  4.8547431906310878e-01  4.8265404192939576e-01  2.6420075059426856e-01  2.5763567653819075e-01  3.8868235135199253e-01  3.9622149398843010e-01  3.9172384615469324e-01  4.0342723875139330e-01  5.1949463294374354e-01  3.3680222515504532e-01  2.7758445851016628e-01  4.2334863603020878e-01  2.9354879778378801e-01  2.8333620546089533e-01  2.8316187930173903e-01  3.4084019357474055e-01  2.9377199247932012e-01  4.2102917526579886e-01  3.0870097499382371e-01  3.7536457768124426e-01  3.0919112649557701e-01  3.0270077024886866e-01  5.0951539508135724e-01  5.0929944999314214e-01  3.0418902746061210e-01  3.8442827741597568e-01  2.7647483214675739e-01  5.1497388891497409e-01  3.2519824034164724e-01  2.6449312601300567e-01  4.6513749450083575e-01  4.6395082089048362e-01  3.4908981274995976e-01  3.1130157860895896e-01  3.8131309812894049e-01  4.1838953660589040e-01  2.8127088520340499e-01  5.0329308797050409e-01  2.9039009107058739e-01  3.0695117941564343e-01  4.2674670659843328e-01  2.9648122831625867e-01  4.9833985923887270e-01  3.7637186241296094e-01  3.2335558039196177e-01  3.3547358446082282e-01  3.5561505009704136e-01  3.0911872586759476e-01  3.4154089925049602e-01  3.6098518272569036e-01  4.1555722510227799e-01  3.5678176523824789e-01  3.2072025558743361e-01  2.7490227587946109e-01  2.6478144242075119e-01  3.2561293375871747e-01  4.2418652772555421e-01  2.9242516874833357e-01  2.6597175181115534e-01  4.0357219294695995e-01  2.6845343494481305e-01  2.8679497685624161e-01  2.7628106778354533e-01  2.9013059948741637e-01  2.8465149749340363e-01  2.8670925692013144e-01  3.8157361591283251e-01  2.8692069539373505e-01  2.6081897000467585e-01  3.3341794135972158e-01  3.5079952087674804e-01  2.5808348785858082e-01  2.5888938326001637e-01  2.5947659089167946e-01  4.4741608350716172e-01  4.3172330396044944e-01  4.1687616770157482e-01  2.8734882920132754e-01  4.8479247058064395e-01  4.4031740681369641e-01  3.1866667822846928e-01  3.4501660729727601e-01  2.8377117288349279e-01  5.1060053955186224e-01  3.0642244454228534e-01  2.6306656323590305e-01  4.7892210164855781e-01  3.6745594374474999e-01  5.1622930661885136e-01  5.1992849521518081e-01  2.8373160878211390e-01  2.6159097852734936e-01  2.5820063223682782e-01  2.5946303567189843e-01  3.9841720680189247e-01  2.8561374256338484e-01  5.0322255150480044e-01  2.6170680362926918e-01  2.6273035527801897e-01  2.6053140524062207e-01  3.2223139102425913e-01  3.1763526317243579e-01  3.8006259744553628e-01  2.9234786527508499e-01  3.7231808101648523e-01  2.9417516278156658e-01  4.7810597979875080e-01  4.8041858703830614e-01  4.9084834376182279e-01  2.8808152957886718e-01  4.9032889383397044e-01  4.4935790977661666e-01  4.9837903277614098e-01  3.3769992608603472e-01  4.2051344488775588e-01  4.1917520697202870e-01  3.3074875810344606e-01  4.0019934282547354e-01  3.9103662609598749e-01  3.8374921350740282e-01  4.1519566562779331e-01  4.8708047150428130e-01  5.0409856829261956e-01  2.8302191375301095e-01  3.4451917242895252e-01  3.4592179563966369e-01  2.9274445152427686e-01  4.6890947456791676e-01  2.6615846062114568e-01  3.9340353972365011e-01  3.3435288313033312e-01  4.1700785706781035e-01  4.5671333626593186e-01  3.7905384347805049e-01  3.4141658665107905e-01  3.7455121419295540e-01  4.4099555504598836e-01  4.2846908993751104e-01  3.1916336913822851e-01  2.7704558092699066e-01  4.5972701899461915e-01  2.9374604893525158e-01  2.8599374976308861e-01  3.9767966430745794e-01  3.4987682800017900e-01  4.4682413313451863e-01  3.4555607692833257e-01  4.7167387327935950e-01  2.8770757096328109e-01  3.7608773920169614e-01  3.7008059405897087e-01  3.2044393565294421e-01  3.2422959231000442e-01  3.1960601806067496e-01  3.0875659921029486e-01  3.0917609112386918e-01  3.2369506641203016e-01  4.0826795726451520e-01  3.3290504068880467e-01  3.6534610489153957e-01  3.9298171060310993e-01  3.5553890755037587e-01  3.5106881230629639e-01  2.9954741625085468e-01  3.7455601812397465e-01  3.3147713336086959e-01  3.2524366311407960e-01  3.3219983912720069e-01  3.3961474678370135e-01  3.8753033119203206e-01  3.8333960341216838e-01  3.7221951939164249e-01  4.1670144093934630e-01  2.9313304231979376e-01  3.1142371026483062e-01  3.0965704841356106e-01  3.1559842597389021e-01  3.1969863113573838e-01  3.1093480294586917e-01  3.0286991250718798e-01  3.6417267249177282e-01  3.7212004405486537e-01  2.8891280602566805e-01  2.6583485368618481e-01  2.9275899757746898e-01  3.6913101930744063e-01  4.0230050445959076e-01  4.2690984771467988e-01  3.6137492503330354e-01  3.1210349401651649e-01  4.5082861050263917e-01  3.8553734420734403e-01  2.9890798168374755e-01  4.7317627621636582e-01  3.2191423036959316e-01  3.0364182202149120e-01  3.0277001657468972e-01  2.6896328201913650e-01  2.9764082482160359e-01  2.8950792102508888e-01  4.0216571772963722e-01  3.7163107016439778e-01  3.8711129611928768e-01  4.1693581208852121e-01  3.3255490631186568e-01  3.2389819314434926e-01  3.5914014680548639e-01  2.7677649179245445e-01  4.0484070069678557e-01  3.7878900937065590e-01  4.0143187008378250e-01  4.0904181368353315e-01  3.0762173725224395e-01  2.9202521747823401e-01  3.1420138651165530e-01  2.8855204399502871e-01  3.1364110145790308e-01  2.8268993619525679e-01  2.8394321723329441e-01  3.2656550657334937e-01  3.5880493583828427e-01  2.7733688403956425e-01  3.0261369522900722e-01  3.3623508269495389e-01  3.0596973085387213e-01  3.1453986428662783e-01  3.2226059018942149e-01  3.0378276968457729e-01  4.00229482104