<?xml version="1.0"?>
<VTKFile type="UnstructuredGrid"  version="0.1"  >
<UnstructuredGrid>
<Piece  NumberOfPoints="6486" NumberOfCells="12696">
<Points>
<DataArray  type="Float64"  NumberOfComponents="3"  format="ascii">0 5 0  0 0 0  5 0 0  5 5 0  2.5 0 0  5 2.5 0  2.5 5 0  0 2.5 0  2.5 2.5 0  0 1.25 0  1.25 0 0  1.25 5 0  0 3.75 0  5 1.25 0  3.75 0 0  5 3.75 0  3.75 5 0  3.541666666666667 1.458333333333333 0  1.458333333333333 3.541666666666667 0  1.875 1.25 0  3.75 3.125 0  1.284722222222222 2.326388888888889 0  2.683189655172414 3.767959770114943 0  0.9375 0.9375 0  4.0625 4.0625 0  0.7252209595959597 3.026357323232324 0  2.763480392156863 0.9129901960784315 0  1.875 4.345238095238095 0  4.345238095238095 1.875 0  4.192708333333333 0.8072916666666664 0  0.8072916666666665 4.192708333333334 0  3.368055555555555 2.326388888888889 0  0.6837606837606839 1.738782051282051 0  3.285485245626782 4.324328415208927 0  2.551239698778062 1.693130150610969 0  1.827256944444444 2.868923611111111 0  3.464875022477093 0.6813924607921316 0  1.942880513719175 2.059558626187995 0  3.04563492063492 2.971230158730159 0  4.375 3.4375 0  2.13639445139758 0.5994472256987903 0  4.272228422619047 2.606956845238095 0  0.625 0 0  0 0.625 0  5 4.375 0  4.375 5 0  0.6400043240752655 2.384646170113389 0  1.347691225855598 1.660875475110776 0  3.515783617857982 3.723905460714006 0  3.125 0 0  1.875 0 0  0.625 5 0  4.375 0 0  5 1.875 0  0 1.875 0  0 3.125 0  1.875 5 0  5 0.625 0  0 4.375 0  3.125 5 0  5 3.125 0  1.489644181965304 0.6007147273217681 0  2.054597701149425 3.742302955665024 0  2.662520990197781 4.39452575763237 0  2.415835363784578 3.165530021913244 0  0.8679986894865213 3.602373689486522 0  1.267459753787878 2.886186079545454 0  4.099702380952381 1.365327380952381 0  1.316964285714286 4.438244047619047 0  3.7915135293491 1.959691594758709 0  2.875141124191255 2.118761176511833 0  3.00418010501169 1.397414179299248 0  0.4081721322167092 3.410647930198662 0  0.4166666666666666 0.9375 0  1.014190407998288 0.4422301359994293 0  1.383260571305984 1.162718286082048 0  4.53125 3.90625 0  4.453125 4.453125 0  3.772848162504192 4.48678272083473 0  2.8125 0.404329517041716 0  0.4538690476190476 0.4538690476190476 0  2.305461739347387 1.04517007574828 0  3.771263799175824 2.624190260297553 0  3.229617768018734 1.809956994202883 0  3.780190884441317 1.025307111692601 0  4.646337365591398 0.9375 0  4.537623451379149 0.4609485750426037 0  1.200477888421151 3.934852888421152 0  0.3536626344086022 4.0625 0  0.4623765486208503 4.539051424957397 0  4.0625 0.353662634408602 0  4.560525106689535 1.390989100915847 0  3.958439078571988 3.619844539285994 0  4.672619047619047 2.1875 0  2.1875 4.672619047619047 0  1.862808494877602 3.325947624431087 0  0.3268135998175443 2.8125 0  4.674181280189791 2.8125 0  2.283233994935276 4.138623547175983 0  0.9375 4.677879119362977 0  3.08488061581743 3.469889594488945 0  3.113427375573758 3.913955730709506 0  1.652847799068813 3.950848935641292 0  2.932652662909449 2.550542739521724 0  3.311350648514189 1.088831994878698 0  0.6770833333333333 1.295851139601139 0  0 1.5625 0  1.047214787840024 1.96818092308125 0  4.183331482095785 3.03958703580843 0  3.4375 5 0  1.071307777252521 3.246275861010018 0  0 2.1875 0  0.386576856303419 2.03125 0  1.713862716483534 2.439783116849799 0  1.775396256975935 1.665976816304977 0  2.231236976948428 1.443917394671254 0  2.373900732409897 2.086930260150635 0  4.114918237574474 2.221646174618671 0  3.661302567757379 4.099620139144836 0  3.378215938602977 2.734494874063393 0  0.9842097536079312 2.597286741306247 0  1.642795138888889 4.672619047619047 0  4.0625 5 0  2.099458800960004 2.567446522665629 0  2.616202751603346 1.297895893940078 0  5 4.6875 0  0.9937554350075428 1.512592975947215 0  2.8125 5 0  3.002695327068194 4.614055254615477 0  3.205627424097207 0.3852436382721472 0  1.678616581261621 0.927556612265266 0  3.365326698305438 3.196943731162083 0  1.554834936170314 3.120009882655813 0  3.108408340729323 0.7797187795784133 0  3.684368918102174 0.3728877601163941 0  2.716214835303553 3.39276351922003 0  2.37718583984784 3.551973401560441 0  0.3750662445374837 1.52191994866787 0  2.679073487930202 2.844160731602957 0  1.557635869750078 1.991068682985722 0  1.812595698561088 0.3839273018252746 0  2.512014721281916 0.6320641118792227 0  2.1875 0 0  2.349973454443689 0.3189980586887866 0  4.6875 3.59375 0  4.636052949022233 3.178355898044465 0  4.6875 5 0  3.345485909784306 4.665765449101383 0  0.536727472389443 3.749603193819277 0  4.349541499640203 1.116201826262156 0  2.886559045931982 1.774013674579691 0  0.6770833333333334 0.7142857142857143 0  1.5625 0 0  4.120842096538671 4.628726497527622 0  2.176157474177018 1.793470423744689 0  2.175650736889416 2.909863021769539 0  4.036616464259081 1.709699085170981 0  3.887974623473683 0.6492597046022868 0  3.4375 0 0  3.70675699592552 2.289666624772415 0  4.697265625 4.208984375 0  2.815177577303495 4.085937578239174 0  4.672619047619047 1.730733296184288 0  4.6875 0 0  5 0.3125 0  0.3125 5 0  0 4.6875 0  0.3276089296588581 2.484526834811734 0  0.712433309515852 2.065138854645612 0  0.6376435912223634 2.711473454001295 0  1.184991292170422 0.7222504400947201 0  1.31884329779317 0.3206944232264773 0  3.683609198994263 3.44428698533042 0  0.3125 0 0  0 0.3125 0  4.231797269642997 3.789141808928991 0  1.564375596050781 1.425998687184973 0  2.007640894175573 0.9032106925568466 0  0.955125897558294 2.276666098587227 0  1.43898735721003 2.611310720271951 0  1.954491523717513 4.040700257877075 0  1.752947649777421 3.652439445419346 0  2.509575750247638 4.678021307664052 0  4.687194709705067 2.499965519538002 0  1.5625 5 0  0.9375 5 0  5 2.8125 0  2.1875 5 0  5 1.5625 0  5 2.1875 0  4.0625 0 0  5 0.9375 0  2.8125 0 0  0.9375 0 0  0 0.9375 0  0 2.8125 0  0 3.4375 0  0 4.0625 0  5 3.4375 0  5 4.0625 0  4.010848109290813 3.306446973933037 0  0.3077461147713075 3.119700563473354 0  4.6796875 4.6796875 0  2.333079012424948 3.845757959077508 0  0.7829771267899832 3.317744656243421 0  1.159100632608513 3.532487125138763 0  0.799066251840424 3.893573750162776 0  1.57326499580282 4.255438189102632 0  0.7309366047093668 0.2991402264438908 0  0.3054777494262156 1.223275888123843 0  4.027475154280377 2.78211326942427 0  2.35270874745988 4.426658168476266 0  3.474236283732569 2.021154281686229 0  4.401414236174444 2.329446628171927 0  3.39403781747337 3.987097102903034 0  1.077524329801934 1.214100792470484 0  4.065611571711903 1.066085524514197 0  2.165399002716117 3.335637450367864 0  3.007639563081306 1.093684039371638 0  4.030818285732145 4.351883315180857 0  3.504115222530889 1.739284194222036 0  1.224503368215566 4.712091441401919 0  3.805634204685714 1.321528442399996 0  4.319233123479386 1.573547993867769 0  1.024007670021325 4.394604704797005 0  3.776400432023095 3.839003324979723 0  2.991819819453308 4.320567175146181 0  0.9782797534072181 2.886406017887129 0  1.763835134082104 0.6602345487826022 0  3.765182288741625 1.631193038541544 0  2.267959593989681 2.345053543725764 0  4.412434895833333 4.168294270833333 0  4.4072265625 4.7255859375 0  2.791493971314009 3.11210833271929 0  3.408766223032414 3.469500900677365 0  1.915147569444444 4.725484476461039 0  2.070301968506271 0.2605666686358055 0  2.767932250651506 1.530295992695836 0  3.280065043173439 1.364863281105779 0  4.45101570110842 2.974157152713635 0  3.521928862999512 2.96990445010402 0  2.552921961347576 4.008414007169315 0  0.2682955376854191 3.657555015841003 0  3.084522868361304 2.310593316718068 0  2.669255823227708 1.939379494498064 0  2.615884629473921 2.238841231570381 0  1.405652091971449 0.8877813821442277 0  3.25151486618811 3.68536115104276 0  1.963741569810629 2.331207252264507 0  4.017297980292599 2.486269171379106 0  3.869168920841219 4.748188103831625 0  3.596868753579134 4.77342723825056 0  2.41262958240343 2.764128584995838 0  1.266750578673391 1.404747710001619 0  1.559243962241121 2.85146506328516 0  3.128799423834764 2.052081657715259 0  0.6770833333333333 0.9778025793650794 0  0.2083333333333333 0.78125 0  1.978224492765132 3.087074731032578 0  4.051448850909273 1.969392119104174 0  1.320577095006813 4.172234780971559 0  3.214261103850064 2.534397293281829 0  0.2635729089754111 1.779234736680035 0  3.510775680035133 4.460728640112889 0  2.603081405968802 0.2432579385496493 0  2.866341315154884 0.6662105505481998 0  3.000919221100777 0.2270278495648781 0  1.298858304121393 2.05917319923859 0  2.020292299736597 1.589794568392338 0  0.7401688396476035 4.470780315741533 0  0.6721783535561408 4.733125588707921 0  3.753712482075402 2.874301339727514 0  3.557348205914658 2.491958694539413 0  1.094565978195436 0.2011034254079851 0  0.9338148378011396 0.6833568465908735 0  2.945530578578538 3.701798332963805 0  3.111707186654356 3.216904195825605 0  1.341791111822685 3.293123262233967 0  1.632939924064587 1.184895891095613 0  0.6335477978936732 3.517393619499591 0  0.5576014611130192 3.210998966942492 0  1.564344196470102 0.3630498725895039 0  2.75362450242839 4.626680495816594 0  3.571304405229554 1.192452351107437 0  3.522934592621944 0.9359134489437148 0  4.453125 3.671875 0  4.765625 3.828125 0  1.055906321410838 4.14310472322957 0  4.795146539102229 0.46875 0  4.767156345199235 0.7178596932040019 0  0.2048534608977711 4.53125 0  0.232843654800765 4.282140306795998 0  0.5393715189906129 4.270810883024032 0  4.329922600274667 0.2750645887059072 0  4.275515096738972 0.5448389557295173 0  4.477747423652795 0.7252838358993123 0  0.2002829820452772 0.46875 0  0.4352678571428572 0.6956845238095237 0  0.5007241582667088 0.2123388122114133 0  4.672890923830735 0.2500902110494848 0  0.4308009280819452 4.783624996516437 0  2.104871305393774 4.438653689007242 0  0.2274454167838428 0.2274454167838428 0  3.446466574593436 0.4359605369011901 0  2.12354112127588 1.217588426759619 0  2.309175236825235 0.7888355970690434 0  2.556178570281936 1.054299163237582 0  0.578683248637
[...]
<PointData  Scalars="f_16-0"> 
<DataArray  type="Float64"  Name="f_16-0"  format="ascii">3.6052325759772365e-30  -2.9111597601625198e+10  -1.3533561388784598e-27  -1.8128673067840850e-47  1.8297507367023375e-07  2.7625330929444382e-30  -8.2477462620047876e-35  -1.0433661463300987e-07  -6.5446153301908494e-15  4.0755865646589541e+03  1.6195404769297468e+01  -4.8390886317372120e-33  -2.9348869445230833e-20  1.0198926827214858e-29  -4.9659599672551783e-17  -3.4615469945715333e-37  -8.5193586973136132e-40  -1.0509402338720314e-20  8.7153397716139702e-21  -2.0297237034033156e-04  3.3720096627230550e-26  2.8902356775816071e-09  -7.6990472832784598e-25  -2.8406043042299441e+01  -2.2876649488402116e-35  -1.0361455974955898e-13  7.0296419302592764e-14  1.0860565116399835e-27  -2.0358389262971300e-28  1.0097206526587892e-23  -1.7053092926714000e-24  1.9609172062381940e-17  -6.0142688812678521e-02  -2.9210966374853503e-32  -1.0152852296756106e-10  1.0704823889483202e-13  -1.8506139638104229e-18  1.8844956272528032e-07  1.8122803462549198e-20  -1.0132454766896831e-31  -4.6453450756820613e-08  3.2998512298194938e-25  1.8761430713585105e+06  6.3436636851732121e+09  -5.7401085137261720e-43  -1.4669145652522999e-42  4.2575266835359740e-07  2.2469449911530774e-03  -6.6230712768506369e-29  -1.3683706746036106e-12  -1.1265988203895296e-04  -9.5430761665070465e-32  2.0708353636421785e-22  -9.1852651322967473e-32  3.3761495570033408e-03  -1.8740725571226797e-13  -1.7043683450846165e-34  2.1078971073670285e-28  -1.3449741093773158e-24  -1.0880921839512202e-36  -3.0838458005309483e-33  2.2386414352493268e-02  3.3030714536485908e-22  9.0237365045876676e-30  -9.4290154871696996e-20  -1.1061798692754680e-18  -8.2897972106281641e-15  4.6753813105413600e-26  -8.5216670354204104e-30  2.0342724429726685e-22  7.3505188401651296e-14  -2.5827250141103067e-16  -7.8081071632035197e-18  -2.8066377425881010e+06  -3.4612278218950689e+02  -1.5457953812373237e+01  -5.3895734262529873e-38  -4.5391719398143152e-42  -8.8180138925990606e-36  3.5772593595519510e-12  4.0108221338223949e+07  8.2542827481829363e-09  5.0040536037276181e-22  -4.7191819669553465e-17  -8.6767366270021188e-22  9.3458249950907544e-26  -1.1772255894161410e-25  1.8396097404199259e-23  -4.0512106995302267e-23  -6.5847217376362837e-27  -9.2229439297374638e-22  8.8093279579181248e-29  -4.2825053737817626e-31  -5.3503810024951994e-28  1.0783647565258315e-31  9.1851632590747147e-18  8.7151254342530552e-12  1.2610703021281579e-28  -2.1922772431055676e-26  -7.6410163020942037e-30  1.5258461573831423e-24  1.8101341980286591e-29  1.1362354545534623e-23  9.8253296901936412e-17  -5.3258198874415713e-18  1.2561842574823773e+02  8.6089062573526454e-01  -1.0977541446865227e-05  -4.1001593817383706e-27  5.9610517465799866e-39  -2.8976752592635342e-16  1.4075663674199559e-05  -1.9583685158555612e-03  2.9239447954036253e-10  9.8101529710988453e-05  -1.1005528124090253e-08  1.0713282795840659e-11  1.5555520401997231e-23  -2.7349790378442597e-33  6.8066255830034783e-21  4.7879797210823456e-12  4.1266772628968346e-30  8.8412637906709035e-40  1.2288126159858298e-12  5.3045972704081499e-12  7.8944988889727936e-46  4.5794555009420153e-02  -7.8949507911026416e-37  3.2233696487505245e-33  2.5987246062423799e-14  6.4083628781157614e-03  -4.5290898233705695e-24  7.3953730832437698e-17  7.8552661314447807e-17  -6.3929632823833607e-18  -1.8794871946633263e-22  -1.1101924874506478e-21  -2.4516527824624907e+02  -5.1456423029408455e-18  -4.9063371476819362e-06  8.7758747017641378e-06  1.0757258324831137e-10  1.5871281832633721e-06  -7.7656195746191091e-08  1.3927854237697450e-34  2.8490379571334676e-31  -7.6241654529039222e-46  8.5110209878975761e-36  -2.1424365271995439e-20  -8.5187729950038911e-28  1.0993520570716756e-13  1.4831022944164043e+05  2.2077627119595822e-02  -3.5895094638374502e-41  3.4205002678538839e-07  -1.1541902674517998e-14  1.6321948955919556e-25  -1.8601532665301231e-20  -9.8838147394538885e-16  -6.6056759298003550e-19  -8.6043066686182716e-40  1.7651494088179269e-27  -2.7676208498279573e-31  5.0971144132490821e-25  -1.0927910055898823e-27  -1.6439546801157489e-30  2.0529149404137628e-27  1.2620787411359145e-08  -1.1124689316335459e-05  -4.9744854408982681e-10  4.7245766448282565e+00  -8.8533089648485019e-01  -6.8312218717518614e-28  -1.8251131374690166e+09  -5.0602301413769794e+11  3.6574808319193322e-34  2.3792348912284430e-02  -2.4918963280622057e-06  3.3924895132051216e-09  -9.0249931658735605e-12  -6.2953389140258938e-26  9.4593069492870671e-22  5.6518600960605910e-33  -1.6837905253595549e-28  1.4515026181778332e-32  9.9062940917165979e-32  -3.6075901882014576e-31  -1.3568548964484011e-34  9.6168771117508008e-33  2.0611912653832854e-31  -5.5262719971924520e-20  2.2522797246268680e-28  -1.5709328929133925e-09  2.8670645646044763e+03  -2.0145277812233638e+07  -9.1159011029865023e-11  -7.7594516140555943e-16  -6.2249597047012938e-22  -1.6034226152656327e-34  -2.8850818047051871e-39  -3.4719907323284818e-29  2.3007071658771284e-14  -2.3271397146780042e-43  -6.5659488527742197e-23  3.2639074904643312e-17  5.1367598669066970e-20  -3.9508704041478888e-22  -1.2185757062964864e-27  9.0697756709668424e+05  -6.1154184856240718e+04  3.6833327679055118e-24  -1.6214428216576006e-29  4.3881495562806784e-18  -1.6327091131860626e-24  -1.3565318005417345e-29  -9.8360211112292468e+00  5.0398677929578796e-24  1.2373247630521530e-17  1.5623479183888352e-15  -9.8969857947212026e-37  -8.4122214050165228e-20  -5.9705867661508716e-30  1.2907370908762964e-23  2.0397220513523866e-27  1.1136630379792379e-25  3.1408822839865193e-32  -1.4426437547687521e-31  1.8560284116870640e-13  -1.3011592170420410e-04  -6.0535940526562557e-22  -4.7898802631366182e-11  -5.1330316695315955e-39  3.0652069957761708e-42  -5.1834160388367772e-21  1.2697063206734685e-27  2.7779811419285445e-32  1.2327351322452952e-05  2.3562157144324165e-12  -5.9522984735004333e-20  -3.5086459489600165e-28  -4.6480196386752126e-24  3.9501702088699516e-25  -4.7467635801925069e-19  1.3858853137417343e-16  1.6451980068913888e-11  2.9464315475869904e-14  1.8744770430414620e-01  -2.0537483934346552e-26  -1.4778671358204465e-08  1.3569358543590024e-21  8.3815638172156025e-38  -6.1208997804792924e-37  1.7982151246677842e-15  7.4176667471303190e+00  -3.2000332670653927e-15  5.3739576277833635e-16  -1.3696012715903735e+03  -2.5788244783814874e+07  6.5233756678806052e-15  6.9972036109568243e-25  -1.8493965026510681e-25  -1.9409007824289835e-18  -5.3669258320849220e-02  1.6036318703805255e-34  1.1386285072690022e-09  1.0292669258567332e-13  -5.4511118644542910e-13  -4.5489298477832793e-08  9.2526380721234790e-06  6.4601878075823900e-26  -1.0115049609944340e-28  3.9780462923595828e-23  -4.4180604348496676e-20  1.3210271065633492e+03  1.5847488340455952e+01  -7.4890130115053438e-25  1.9745393638988873e-23  -1.7536828634027411e-18  -1.0840210941541888e-01  8.9055665756289193e-19  -1.1932751879176309e-15  -2.4911294388164990e-02  -2.7840024970128987e-32  -1.1113453870359166e-20  -2.7107917657067232e-19  -1.9292707090421225e-35  -3.2803554353858055e-36  3.5451210401506785e-26  5.9238504657334963e-27  -7.0830170076825252e-27  2.5362153609774250e-26  -2.7290607648531748e-24  3.5484341041174788e-25  1.7397378643557785e-22  2.3645333371393879e-23  2.3806986761439113e-24  -7.2519620846352600e+10  1.4481058378331257e+07  7.4825490969293272e+08  3.0396866565612036e-25  -4.2674727483652459e-32  -6.0013550957873464e-31  -1.5611984286314371e+11  2.6800281533533395e-17  -1.2305195620448964e-07  3.2116480349499980e-09  2.7033797710458170e-12  -2.9563233687309254e-23  -5.7721374436235976e-23  -3.9454017643174443e-08  1.1179037086011628e-20  1.4305758742268285e-19  5.2508295375090559e-29  2.3421613197116669e-32  -2.0990036690348307e-42  -1.8433625146762178e+00  2.9318071399371945e-23  -3.9674005783194224e-21  5.4790840097583490e-16  7.4356399619182880e-30  -9.0697813830350203e-20  5.1034910358901679e-21  1.9680635783788469e-03  -1.6504628963575773e-19  5.4023228709083533e-20  -2.3202719509798943e-26  -1.7634133368878409e-03  -3.1693584769772758e-27  2.2003894615345461e-27  -1.3292609693792852e-06  1.8284308653605720e-29  -9.2165178607551866e+01  -1.4188339840643936e-11  5.7850075041896244e-31  4.6681452773377159e-35  1.4332579465969048e-22  2.1347600385361328e-33  -1.9251146890629731e-12  -2.4768597420025987e-10  -9.9327580596977829e-31  5.3314601098128830e-27  5.0774383996020716e-07  -3.3406096770166686e-15  -1.8492998032428930e-18  1.3010828712609715e-34  -1.2300816079027680e-16  1.4015426615855553e-31  1.0214241141552593e-30  -2.1894563991814714e-15  1.3182419392235574e-31  -9.0514289897414270e-12  6.1929031315674559e+00  -6.7309629954284799e+02  -1.5838677528810404e+04  1.3728624970260068e-17  -5.6239766602087698e-16  2.0309329693624438e-07  -7.8382082983245570e-30  -2.2838037060920602e-30  1.6854249015393344e-34  -3.2772414548437989e-29  -1.3890306377388684e-45  1.5363461341620942e-25  6.9523566447807316e-26  -4.4137667137272954e-14  3.3867513110414879e-42  -2.4774469177523537e-14  -4.0448960757084330e-34  -1.6411122592384174e-25  6.5082131098884976e-24  -3.5749070304061241e-20  -1.2828034322419036e-13  -1.9858211362317052e+04  9.4542862026868853e-38  1.2891283467716529e-22  3.6302929985312371e-10  2.8937660280214492e-09  3.7100648181677960e-34  4.6074620562220894e-06  2.7159037064042964e-04  -1.2771012683445484e-02  -3.5738084408901348e-06  -6.2285071897987829e-24  1.0223927450124923e-12  -6.9202814668414136e-21  1.6293268751923660e-16  4.2723434746640921e-24  1.6696400052442745e-28  6.6559244258268833e-30  4.9756683513180252e-17  -1.5726245183182627e-10  -3.8392733845317379e+00  -4.8575800765299809e-29  5.6316784140751135e-02  -8.6696366766151213e-07  -1.3610005676868528e-36  3.8751313201605186e-19  -1.3566220556097910e-15  -4.1015550576129350e-32  -2.6475909010934804e-12  1.1887607027646019e+06  -1.2562272899105988e-04  8.7460852247399129e-22  -1.3704110401820673e-26  -5.5639645770523697e-18  -1.3470852596329931e-23  1.0596509140712378e-35  -5.2917383967692761e-16  -1.0126247189136428e-03  2.2801988873687626e-26  -5.9008940834119321e-11  -1.5092983953119353e-10  8.1307117974782565e-09  -9.1443193811593453e-26  1.6951193515320044e-17  -3.3790060722767932e-14  2.4025388461622512e-21  -3.4199925181210125e+00  -3.0110078372761469e-07  1.1635720742785041e-32  1.2613455722437845e-12  3.9956056625532430e-26  1.5711563129051367e-30  1.0867294181577836e-33  2.4764982741338002e-13  1.8462173606479776e-09  2.0637751451060763e-22  -2.0049730086109186e-27  2.6082207611921590e-31  1.0175961556624779e-33  -7.4828316480784796e-01  1.5293186987087619e-15  4.2205855173525679e-33  4.6907358584206221e-30  -1.2798302023513900e-21  -3.7120491441734829e-10  1.9625756866877211e-24  6.7673847767829927e-11  3.2349158846230008e-30  -3.2882134856581807e-01  -1.0775373714579081e-27  -1.4413277807536858e-17  -7.3223720019996939e-09  -2.0104136994044554e-19  -2.9803429712015900e-44  -1.3499025542372302e-05  3.6299807540816421e-25  4.6305873730938211e-14  1.5922690941552495e-05  -1.1685950632254008e-24  7.1289785186877804e-20  -2.8190241298424380e-05  -5.6719586333069980e-31  -3.8184583992014687e-39  1.3929132808108322e-30  -1.8964759770338079e-34  -2.9378634853521178e-06  3.5375952280970174e-01  -2.4166711915749758e-14  -5.9087518273827011e-01  7.7662248805254143e-24  -5.1567947925589297e-16  1.4422051728783553e-08  8.7080272961367092e-21  -1.6748389232895568e-20  -1.2996313228145932e-11  -7.0442774225756049e-30  6.2982528378269502e-04  3.0087021856645362e-16  -7.9330964217389703e+02  -8.1488174669927344e-20  1.2036600000652318e-02  -1.3664376920587301e-03  3.5849952870903168e-09  5.9936618627557819e-14  -5.1752361111228471e-12  1.7445186361503689e-22  7.6428119878267082e-24  -2.4565715894346699e-21  -1.0703901325617695e+04  2.4177107791594690e-31  -2.6488112963241745e-36  1.1134061385433509e-39  -1.9903605435222052e-28  -5.2394332495936963e-11  -9.9860873974833233e-39  -8.0827886278713368e-01  8.8778648899761995e-07  -4.1586242772576324e-10  -7.8161548548664778e-27  5.5706577341277544e-16  -1.8309750556794701e-14  -1.0142040692498259e-30  -5.8846962696683992e-16  -3.2758643545584663e-33  1.5499151443468319e-28  -3.7211075134546227e-21  1.7428036887825666e-33  2.3653348626961589e-21  -3.3774783142474936e-37  9.8521261259243319e-25  7.0882943731503255e-16  1.2483771112175832e-12  -1.2106578750235724e+05  2.4793863779897164e-28  2.4968418455930046e-27  7.0142484895571039e-33  -1.1943067432784858e-04  -8.5579005527120238e-20  9.2116465866300025e-19  4.5466686375996795e-20  1.0234696185555139e-39  1.5239975788541934e-06  -3.3712909588975568e-28  2.9675126466501101e-07  -1.8708004698300191e-06  -3.4175613747064753e-21  -1.7829490707032845e-17  -1.2983807007996632e-23  8.5381277420991428e-32  2.7274559668620340e-30  1.6659446011098552e-06  -1.5433963529558118e-03  8.6584097546523201e-15  -1.6056856073336529e-30  1.5528824861985273e-28  -1.6497276184450180e-22  -9.7177756802059828e-18  5.9279591192771527e-20  1.1993271263600879e-27  -1.8609375489363440e-22  -4.3297349150570504e-33  -6.9785117057159333e-26  2.3465358268031089e-09  1.4357883150588556e-30  1.2115283856446254e-26  1.1262293085535828e-25  3.0580404222061197e-23  1.1236034080353315e-35  -4.8009576503717056e-36  -2.5263999654809856e-33  -1.0925028721204919e-27  2.2230950920112165e-28  5.3099630100913022e-25  -4.1538677137825274e-06  -4.8864611893954438e-07  2.0568707608739729e-18  -2.2065378605193188e-34  -5.4435527898670992e-37  6.6845800210942671e-19  4.3381098126041463e-41  -3.2046441140249318e-40  3.5736122576206254e-12  1.7156880492004847e-14  1.0248616119289948e-25  3.6599785934638358e-25  -8.0635443003840960e-20  -2.4802555090701747e-05  8.1741756915155761e-30  7.0302866450380558e-31  3.2860313748146787e-24  -2.5639361174327941e+05  -2.9970506151387603e+04  -2.3655817175585698e+03  -1.0863495375766623e-21  2.3716989546664706e-27  -3.5548089626774405e-25  1.0570698243170665e-01  -5.2498473724996841e-31  -4.9563964633981780e-28  -1.4049549625966549e-12  2.7052685921743717e-18  1.7944808180003567e-28  -2.4912675023378094e-45  6.2650511857562832e-21  4.0042868933230048e-36  -5.3413446493834285e-40  -2.6970728883568711e+00  2.2945720059716199e-14  -5.8086905802499056e-21  2.7692590981569605e-28  6.6066064063120922e-32  -8.7186042109111787e-21  3.2054818338408755e-28  -6.2377008698140045e+01  2.7326790355094736e-17  1.5271747589776169e-38  5.1178074005245459e-15  1.6221757079155621e-03  -2.8162836010390969e-13  1.6236909393651169e-26  1.2954512599053486e-09  -1.3866958193176294e-12  8.1333415032451713e-08  4.2801577348625428e-28  -1.3436650292404918e-21  4.4862747062263442e+06  6.3570864948198094e-11  1.4261899656282942e-01  -4.6994887428693879e+01  -1.5224435473785652e-01  6.0667221592141075e+01  -1.2853143044778233e+02  2.8903583546129896e-29  -3.3173375069482988e-31  -9.8403675006199791e-17  4.4401613540135642e-14  1.5335579841782812e-12  1.5900043275532757e-11  -3.6446987160511231e+08  2.4473737198037667e-28  -3.0483447886239285e-27  -6.0038657138403827e-06  1.2409399601737555e-35  4.3509429116328804e-27  -3.4089537311213121e-39  1.1744205495886399e-26  3.2689135688892681e-37  1.6619245110529549e-07  -1.4687450980071631e-32  2.2444979646068854e-15  1.4229830908999618e-31  -4.1149569238989944e-33  -2.2445414203369709e+10  -2.0999552396391840e+13  -7.7599489213246982e-35  -2.1715443430717361e-08  8.4203804748993686e-43  9.6604371928569269e+08  -1.3017102350126321e-23  -3.4847834266715577e-27  -2.1801405905130586e-01  -1.1578645225659455e-01  1.8775494414556867e-19  1.0924570935227116e-28  -4.3509868551851917e-18  1.5296666885071456e-07  6.2507458227608350e-40  1.6014574772361377e+07  -1.9339606001091668e-22  3.6257385038507178e-23  2.6051012560870413e-06  7.3874875010292707e-25  -1.7710445628337839e+03  6.2509572284556498e-17  -1.9764504339059643e-28  -3.5730255286793229e-25  -4.7497627553233077e-22  2.1494750142745422e-36  -1.1262832307144682e-15  2.6242075691166165e-22  6.7950808726889181e-10  -4.7314172178528622e-24  3.3244690434233135e-25  1.3714311869079498e-28  3.7268756168657608e-30  -2.3945981830742092e-24  -1.6388882404154158e-08  8.5220045961106663e-35  1.7380669019971664e-30  5.3421064707412765e-07  -6.9872800070095372e-44  7.9544289246880647e-34  2.3719064327180963e-41  -1.4710731888745050e-28  3.5087804954177068e-31  6.4690924467983533e-35  4.4528405796684085e-15  2.0109731706590806e-33  -2.5442250212688818e-33  -1.6459941844282001e-15  5.7500355007050725e-14  1.1755643908725191e-31  -5.3888658551372055e-30  2.4234860190514205e-32  2.4904604298387867e-05  -1.3164428030442168e-05  1.2756536451490836e-09  -7.2364955633845905e-35  8.7658217514862340e+00  1.5305059934302093e-03  4.9033394409482576e-18  2.2629805336191691e-20  -7.0905905894763379e-32  7.2747342116910979e+07  1.3581502131574215e-26  -2.1856343568090954e-28  6.0122472504616348e+02  2.7640404820070206e-13  -1.6942007010355899e+11  -3.5330544938660860e+08  -3.3314442982402893e-40  -1.7660628951372605e-44  -2.4085712304774431e-47  1.2755868824362233e-46  -4.5037755050307241e-12  -3.2917072072809264e-35  -5.1755518822547287e+05  3.0296861233639079e-36  -4.5744905536639765e-41  -6.9439437462878268e-29  -6.9604607813199898e-23  2.5947535312499202e-29  -1.4823026869717952e-16  1.2710028219060777e-31  -3.0072182469283022e-15  1.8508645402279375e-33  4.4610334814457147e+01  3.7094721806677304e+00  -3.0199019319567057e+01  1.6029116590049746e-34  5.3147722343100671e+04  2.8801044051829995e-05  2.6862617695631384e+03  -1.8142174650143907e-24  -1.2562236496640004e-10  -9.2472067615381378e-09  3.7203025269416923e-27  8.1693266362692239e-14  -5.5568583206609291e-14  2.7093278375538958e-16  -3.0727592131064725e-11  -1.4124884209073111e+03  3.6321094840472455e+04  5.2164611877659214e-27  1.5225382313660222e-25  -9.4444001590283189e-24  3.9654774649629156e-25  -5.2847963803828210e-02  3.5752117868529085e-31  1.2458234000343628e-14  -3.2638737920635845e-25  3.8145147900233321e-10  4.1791700084310891e-04  -4.2582883426115729e-19  3.5388914451613443e-24  -2.7210746867098105e-15  -2.2348476024272097e-07  -4.5107444583293912e-07  -4.9621243718083545e-22  1.2926904472545886e-28  4.7651145714358432e-04  1.4792817697912417e-27  5.6638517366504072e-28  1.6726816897800945e-15  9.3964388034381910e-17  6.5139590144065720e-03  -6.6741661443560825e-21  -3.6354812050864229e+00  -1.8929179432495277e-30  -5.3219587538670790e-18  -1.5006093840228831e-19  -3.9544292589276169e-31  -9.6632444105441275e-24  3.0586312037666344e-22  -2.7423205603430340e-25  -1.6403697093261728e-23  1.1121869362835508e-27  2.5060418648958731e-11  8.9501154492732870e-26  -3.4735721449054214e-19  -1.9998395206080695e-11  -1.6354951428411692e-20  -2.2360506330238650e-21  -1.1188074737366084e-34  -2.7756231179642091e-14  -3.8421083073482471e-21  -1.4782401804700686e-22  -1.6547588589064300e-24  1.7823478179541923e-24  -5.9704722762630027e-17  -1.9722310432910628e-16  -1.5366081376082446e-17  -1.1883097071444106e-09  -2.4154154680027424e-24  -5.3720237974597495e-31  -1.5671753446681666e-32  1.0332939222250351e-26  -2.5987742941704281e-24  3.5375579878174025e-27  -1.2060194316199291e-34  -1.0981295615126573e-20  2.5662919929130123e-13  -1.1346551113426468e-29  1.3062363756033101e-32  -1.2425054974877637e-25  9.4439494279069425e-19  3.1411933235743667e-14  8.6846351686640653e-08  3.8635827168993703e-21  -1.7922009155663218e-20  4.0772859410103642e-03  2.9104894244297114e-11  1.3135088021440366e-35  5.0104346393649600e-02  1.2383751626843112e-19  -1.6568086454745607e-36  1.9471368169401005e-35  -1.0799778317789801e-38  -1.2752797279804158e-26  -1.1188648105394684e-30  2.7770208633397327e-13  2.9825620224582629e-21  -1.1915036885067574e-16  -2.0430792774752441e-11  -1.4287673046750921e-28  -3.8254863689841669e-31  -3.5577154205049617e-22  -6.3880163017213193e-25  -6.0609201855511991e-10  -2.0433344074289784e-18  1.3057512534008033e-14  2.00354257