<?xml version="1.0"?>
<VTKFile type="UnstructuredGrid"  version="0.1"  >
<UnstructuredGrid>
<Piece  NumberOfPoints="6486" NumberOfCells="12696">
<Points>
<DataArray  type="Float64"  NumberOfComponents="3"  format="ascii">0 5 0  0 0 0  5 0 0  5 5 0  2.5 0 0  5 2.5 0  2.5 5 0  0 2.5 0  2.5 2.5 0  0 1.25 0  1.25 0 0  1.25 5 0  0 3.75 0  5 1.25 0  3.75 0 0  5 3.75 0  3.75 5 0  3.541666666666667 1.458333333333333 0  1.458333333333333 3.541666666666667 0  1.875 1.25 0  3.75 3.125 0  1.284722222222222 2.326388888888889 0  2.683189655172414 3.767959770114943 0  0.9375 0.9375 0  4.0625 4.0625 0  0.7252209595959597 3.026357323232324 0  2.763480392156863 0.9129901960784315 0  1.875 4.345238095238095 0  4.345238095238095 1.875 0  4.192708333333333 0.8072916666666664 0  0.8072916666666665 4.192708333333334 0  3.368055555555555 2.326388888888889 0  0.6837606837606839 1.738782051282051 0  3.285485245626782 4.324328415208927 0  2.551239698778062 1.693130150610969 0  1.827256944444444 2.868923611111111 0  3.464875022477093 0.6813924607921316 0  1.942880513719175 2.059558626187995 0  3.04563492063492 2.971230158730159 0  4.375 3.4375 0  2.13639445139758 0.5994472256987903 0  4.272228422619047 2.606956845238095 0  0.625 0 0  0 0.625 0  5 4.375 0  4.375 5 0  0.6400043240752655 2.384646170113389 0  1.347691225855598 1.660875475110776 0  3.515783617857982 3.723905460714006 0  3.125 0 0  1.875 0 0  0.625 5 0  4.375 0 0  5 1.875 0  0 1.875 0  0 3.125 0  1.875 5 0  5 0.625 0  0 4.375 0  3.125 5 0  5 3.125 0  1.489644181965304 0.6007147273217681 0  2.054597701149425 3.742302955665024 0  2.662520990197781 4.39452575763237 0  2.415835363784578 3.165530021913244 0  0.8679986894865213 3.602373689486522 0  1.267459753787878 2.886186079545454 0  4.099702380952381 1.365327380952381 0  1.316964285714286 4.438244047619047 0  3.7915135293491 1.959691594758709 0  2.875141124191255 2.118761176511833 0  3.00418010501169 1.397414179299248 0  0.4081721322167092 3.410647930198662 0  0.4166666666666666 0.9375 0  1.014190407998288 0.4422301359994293 0  1.383260571305984 1.162718286082048 0  4.53125 3.90625 0  4.453125 4.453125 0  3.772848162504192 4.48678272083473 0  2.8125 0.404329517041716 0  0.4538690476190476 0.4538690476190476 0  2.305461739347387 1.04517007574828 0  3.771263799175824 2.624190260297553 0  3.229617768018734 1.809956994202883 0  3.780190884441317 1.025307111692601 0  4.646337365591398 0.9375 0  4.537623451379149 0.4609485750426037 0  1.200477888421151 3.934852888421152 0  0.3536626344086022 4.0625 0  0.4623765486208503 4.539051424957397 0  4.0625 0.353662634408602 0  4.560525106689535 1.390989100915847 0  3.958439078571988 3.619844539285994 0  4.672619047619047 2.1875 0  2.1875 4.672619047619047 0  1.862808494877602 3.325947624431087 0  0.3268135998175443 2.8125 0  4.674181280189791 2.8125 0  2.283233994935276 4.138623547175983 0  0.9375 4.677879119362977 0  3.08488061581743 3.469889594488945 0  3.113427375573758 3.913955730709506 0  1.652847799068813 3.950848935641292 0  2.932652662909449 2.550542739521724 0  3.311350648514189 1.088831994878698 0  0.6770833333333333 1.295851139601139 0  0 1.5625 0  1.047214787840024 1.96818092308125 0  4.183331482095785 3.03958703580843 0  3.4375 5 0  1.071307777252521 3.246275861010018 0  0 2.1875 0  0.386576856303419 2.03125 0  1.713862716483534 2.439783116849799 0  1.775396256975935 1.665976816304977 0  2.231236976948428 1.443917394671254 0  2.373900732409897 2.086930260150635 0  4.114918237574474 2.221646174618671 0  3.661302567757379 4.099620139144836 0  3.378215938602977 2.734494874063393 0  0.9842097536079312 2.597286741306247 0  1.642795138888889 4.672619047619047 0  4.0625 5 0  2.099458800960004 2.567446522665629 0  2.616202751603346 1.297895893940078 0  5 4.6875 0  0.9937554350075428 1.512592975947215 0  2.8125 5 0  3.002695327068194 4.614055254615477 0  3.205627424097207 0.3852436382721472 0  1.678616581261621 0.927556612265266 0  3.365326698305438 3.196943731162083 0  1.554834936170314 3.120009882655813 0  3.108408340729323 0.7797187795784133 0  3.684368918102174 0.3728877601163941 0  2.716214835303553 3.39276351922003 0  2.37718583984784 3.551973401560441 0  0.3750662445374837 1.52191994866787 0  2.679073487930202 2.844160731602957 0  1.557635869750078 1.991068682985722 0  1.812595698561088 0.3839273018252746 0  2.512014721281916 0.6320641118792227 0  2.1875 0 0  2.349973454443689 0.3189980586887866 0  4.6875 3.59375 0  4.636052949022233 3.178355898044465 0  4.6875 5 0  3.345485909784306 4.665765449101383 0  0.536727472389443 3.749603193819277 0  4.349541499640203 1.116201826262156 0  2.886559045931982 1.774013674579691 0  0.6770833333333334 0.7142857142857143 0  1.5625 0 0  4.120842096538671 4.628726497527622 0  2.176157474177018 1.793470423744689 0  2.175650736889416 2.909863021769539 0  4.036616464259081 1.709699085170981 0  3.887974623473683 0.6492597046022868 0  3.4375 0 0  3.70675699592552 2.289666624772415 0  4.697265625 4.208984375 0  2.815177577303495 4.085937578239174 0  4.672619047619047 1.730733296184288 0  4.6875 0 0  5 0.3125 0  0.3125 5 0  0 4.6875 0  0.3276089296588581 2.484526834811734 0  0.712433309515852 2.065138854645612 0  0.6376435912223634 2.711473454001295 0  1.184991292170422 0.7222504400947201 0  1.31884329779317 0.3206944232264773 0  3.683609198994263 3.44428698533042 0  0.3125 0 0  0 0.3125 0  4.231797269642997 3.789141808928991 0  1.564375596050781 1.425998687184973 0  2.007640894175573 0.9032106925568466 0  0.955125897558294 2.276666098587227 0  1.43898735721003 2.611310720271951 0  1.954491523717513 4.040700257877075 0  1.752947649777421 3.652439445419346 0  2.509575750247638 4.678021307664052 0  4.687194709705067 2.499965519538002 0  1.5625 5 0  0.9375 5 0  5 2.8125 0  2.1875 5 0  5 1.5625 0  5 2.1875 0  4.0625 0 0  5 0.9375 0  2.8125 0 0  0.9375 0 0  0 0.9375 0  0 2.8125 0  0 3.4375 0  0 4.0625 0  5 3.4375 0  5 4.0625 0  4.010848109290813 3.306446973933037 0  0.3077461147713075 3.119700563473354 0  4.6796875 4.6796875 0  2.333079012424948 3.845757959077508 0  0.7829771267899832 3.317744656243421 0  1.159100632608513 3.532487125138763 0  0.799066251840424 3.893573750162776 0  1.57326499580282 4.255438189102632 0  0.7309366047093668 0.2991402264438908 0  0.3054777494262156 1.223275888123843 0  4.027475154280377 2.78211326942427 0  2.35270874745988 4.426658168476266 0  3.474236283732569 2.021154281686229 0  4.401414236174444 2.329446628171927 0  3.39403781747337 3.987097102903034 0  1.077524329801934 1.214100792470484 0  4.065611571711903 1.066085524514197 0  2.165399002716117 3.335637450367864 0  3.007639563081306 1.093684039371638 0  4.030818285732145 4.351883315180857 0  3.504115222530889 1.739284194222036 0  1.224503368215566 4.712091441401919 0  3.805634204685714 1.321528442399996 0  4.319233123479386 1.573547993867769 0  1.024007670021325 4.394604704797005 0  3.776400432023095 3.839003324979723 0  2.991819819453308 4.320567175146181 0  0.9782797534072181 2.886406017887129 0  1.763835134082104 0.6602345487826022 0  3.765182288741625 1.631193038541544 0  2.267959593989681 2.345053543725764 0  4.412434895833333 4.168294270833333 0  4.4072265625 4.7255859375 0  2.791493971314009 3.11210833271929 0  3.408766223032414 3.469500900677365 0  1.915147569444444 4.725484476461039 0  2.070301968506271 0.2605666686358055 0  2.767932250651506 1.530295992695836 0  3.280065043173439 1.364863281105779 0  4.45101570110842 2.974157152713635 0  3.521928862999512 2.96990445010402 0  2.552921961347576 4.008414007169315 0  0.2682955376854191 3.657555015841003 0  3.084522868361304 2.310593316718068 0  2.669255823227708 1.939379494498064 0  2.615884629473921 2.238841231570381 0  1.405652091971449 0.8877813821442277 0  3.25151486618811 3.68536115104276 0  1.963741569810629 2.331207252264507 0  4.017297980292599 2.486269171379106 0  3.869168920841219 4.748188103831625 0  3.596868753579134 4.77342723825056 0  2.41262958240343 2.764128584995838 0  1.266750578673391 1.404747710001619 0  1.559243962241121 2.85146506328516 0  3.128799423834764 2.052081657715259 0  0.6770833333333333 0.9778025793650794 0  0.2083333333333333 0.78125 0  1.978224492765132 3.087074731032578 0  4.051448850909273 1.969392119104174 0  1.320577095006813 4.172234780971559 0  3.214261103850064 2.534397293281829 0  0.2635729089754111 1.779234736680035 0  3.510775680035133 4.460728640112889 0  2.603081405968802 0.2432579385496493 0  2.866341315154884 0.6662105505481998 0  3.000919221100777 0.2270278495648781 0  1.298858304121393 2.05917319923859 0  2.020292299736597 1.589794568392338 0  0.7401688396476035 4.470780315741533 0  0.6721783535561408 4.733125588707921 0  3.753712482075402 2.874301339727514 0  3.557348205914658 2.491958694539413 0  1.094565978195436 0.2011034254079851 0  0.9338148378011396 0.6833568465908735 0  2.945530578578538 3.701798332963805 0  3.111707186654356 3.216904195825605 0  1.341791111822685 3.293123262233967 0  1.632939924064587 1.184895891095613 0  0.6335477978936732 3.517393619499591 0  0.5576014611130192 3.210998966942492 0  1.564344196470102 0.3630498725895039 0  2.75362450242839 4.626680495816594 0  3.571304405229554 1.192452351107437 0  3.522934592621944 0.9359134489437148 0  4.453125 3.671875 0  4.765625 3.828125 0  1.055906321410838 4.14310472322957 0  4.795146539102229 0.46875 0  4.767156345199235 0.7178596932040019 0  0.2048534608977711 4.53125 0  0.232843654800765 4.282140306795998 0  0.5393715189906129 4.270810883024032 0  4.329922600274667 0.2750645887059072 0  4.275515096738972 0.5448389557295173 0  4.477747423652795 0.7252838358993123 0  0.2002829820452772 0.46875 0  0.4352678571428572 0.6956845238095237 0  0.5007241582667088 0.2123388122114133 0  4.672890923830735 0.2500902110494848 0  0.4308009280819452 4.783624996516437 0  2.104871305393774 4.438653689007242 0  0.2274454167838428 0.2274454167838428 0  3.446466574593436 0.4359605369011901 0  2.12354112127588 1.217588426759619 0  2.309175236825235 0.7888355970690434 0  2.556178570281936 1.054299163237582 0  0.578683248637
[...]
<PointData  Scalars="f_800-0"> 
<DataArray  type="Float64"  Name="f_800-0"  format="ascii">-1.2588312664185036e-01  -2.9081702032016915e-01  -1.2179487650750055e-01  -1.1641024464713609e-01  -2.0671907491850058e-01  -1.2162710809856897e-01  -1.2323038983387515e-01  -2.0776899267598692e-01  -2.0240002695515089e-01  -2.5022370417433054e-01  -2.4943823936227280e-01  -1.2226129757440683e-01  -1.6484759133896487e-01  -1.2163170225845542e-01  -1.6410325727124195e-01  -1.2187966473450149e-01  -1.2270776344800673e-01  -1.7103302844309362e-01  -1.7222321652749739e-01  -2.2813384957962010e-01  -1.6410880338537159e-01  -2.1344815111240242e-01  -1.6438654105232137e-01  -2.5661402745530809e-01  -1.4833401718483558e-01  -1.8976651100686881e-01  -1.9757666704642721e-01  -1.4534568102244069e-01  -1.4378186106531757e-01  -1.4874568021874859e-01  -1.5114696503072308e-01  -1.7732200927572050e-01  -2.3348816358269467e-01  -1.4548940268735602e-01  -2.0507200623073299e-01  -1.9497138118244350e-01  -1.7357339524398002e-01  -2.1945060371748029e-01  -1.8468887885765567e-01  -1.4303417647372973e-01  -2.1909828243942614e-01  -1.4630429377051585e-01  -2.7076636861737885e-01  -2.7137696034365921e-01  -1.2170419728811911e-01  -1.2216516495778190e-01  -2.1170200802765013e-01  -2.3495883245326890e-01  -1.6303593781056139e-01  -1.8504621442551580e-01  -2.2788873594344985e-01  -1.2486582613523077e-01  -1.4277578230640103e-01  -1.2140649115903634e-01  -2.2894777940069228e-01  -1.8629856554213417e-01  -1.2299412197234631e-01  -1.2171112004129640e-01  -1.4644763444353057e-01  -1.2299912963843401e-01  -1.2166336572864833e-01  -2.4124359486125851e-01  -1.6553213514662651e-01  -1.4322047543379826e-01  -1.8491260211077684e-01  -1.7006367025486588e-01  -1.9474564573186776e-01  -1.5197019628753730e-01  -1.4187206801186708e-01  -1.6271622732847002e-01  -1.9404266886851337e-01  -1.8951256121158414e-01  -1.7658638388990774e-01  -2.6075671079356721e-01  -2.5749280036516681e-01  -2.4402449754552935e-01  -1.3756146146751957e-01  -1.3485851955371300e-01  -1.3965606929631472e-01  -1.9597289474922938e-01  -2.7358462099135955e-01  -2.1350956938353668e-01  -1.6364172093594803e-01  -1.8197122399055427e-01  -1.6288210388731528e-01  -1.3346258374351039e-01  -1.3725966480852991e-01  -1.5874237733484228e-01  -1.5418204411596539e-01  -1.3799400042556165e-01  -1.5333497219716502e-01  -1.3616231689387662e-01  -1.5585158782053815e-01  -1.3259307227182807e-01  -1.3417425017242318e-01  -1.7956266573332683e-01  -1.9708367957150383e-01  -1.3254008491272182e-01  -1.5201033605606337e-01  -1.3328656861988114e-01  -1.7323656711238850e-01  -1.5941999783451730e-01  -1.5834454509127843e-01  -1.9142444754934390e-01  -1.7885165476836459e-01  -2.4852709731900385e-01  -2.3959839083449982e-01  -2.2565531828821583e-01  -1.4965251984968866e-01  -1.2288220187740848e-01  -1.8222433684180425e-01  -2.1831528805715672e-01  -2.2406630236297903e-01  -2.0950961902890716e-01  -2.2923922965027754e-01  -2.1597308189284470e-01  -2.1025591965868792e-01  -1.5154581219092270e-01  -1.5194949502851327e-01  -1.7685356954347403e-01  -2.0435123223930049e-01  -1.3359204738249397e-01  -1.2255863586391740e-01  -2.0476843629228242e-01  -2.0296682236861921e-01  -1.2004571460644491e-01  -2.4095551371232615e-01  -1.2315544943604628e-01  -1.3594686467805006e-01  -1.8239438157688476e-01  -2.3482336503283494e-01  -1.7492242733553512e-01  -1.8669326579324652e-01  -1.8584853531501730e-01  -1.6598926359275890e-01  -1.7703641767114520e-01  -1.7175623830151421e-01  -2.4088458461719983e-01  -1.9286590843261792e-01  -2.2462222883749558e-01  -2.3014298502467190e-01  -2.0613396314204238e-01  -2.1720194501901147e-01  -2.1158951416501534e-01  -1.3236979897811818e-01  -1.3395697731308065e-01  -1.2036733427936885e-01  -1.3379817429649868e-01  -1.6482186393877857e-01  -1.4335531539091312e-01  -1.9382445077281402e-01  -2.6483922616395694e-01  -2.3870913794137466e-01  -1.3414124286207957e-01  -2.1755605837556505e-01  -1.9358663198543502e-01  -1.5413686703456561e-01  -1.5905465554021092e-01  -1.7454884913420779e-01  -1.6567020469278243e-01  -1.3131342178559879e-01  -1.5375750383700706e-01  -1.3241228934728147e-01  -1.3215248715925818e-01  -1.2179091226845483e-01  -1.2623838504701948e-01  -1.3576665556495310e-01  -2.0818943658516129e-01  -2.2244173625574168e-01  -2.0045309624538579e-01  -2.5167904423645027e-01  -2.4707638506132856e-01  -1.6459695697996427e-01  -2.8146108308407392e-01  -2.8214191386677878e-01  -1.4702967011591217e-01  -2.3689338020111114e-01  -2.2361151103733665e-01  -2.1520040802416399e-01  -2.0386625734241226e-01  -1.5544954046383244e-01  -1.6851044541045093e-01  -1.3382531646066081e-01  -1.3207092442466539e-01  -1.2330173999678978e-01  -1.2288617852567979e-01  -1.2170260325548347e-01  -1.2295269838064089e-01  -1.2145530585320645e-01  -1.2148243359740310e-01  -1.5342608241884137e-01  -1.2181181780126901e-01  -1.9579653516507553e-01  -2.6006982875650703e-01  -2.6080811537818899e-01  -1.9696450218560563e-01  -1.7556674028095509e-01  -1.5336050228136855e-01  -1.2176974712932283e-01  -1.2191228020579420e-01  -1.5530386546801758e-01  -1.8649333366053097e-01  -1.2711139839266725e-01  -1.6196507947357688e-01  -1.7984356510023872e-01  -1.7258099260426529e-01  -1.6027265679448136e-01  -1.4812564552408322e-01  -2.6714518936477022e-01  -2.5106149542702394e-01  -1.5485343944622837e-01  -1.4259151437649514e-01  -1.7359917961114957e-01  -1.4173661563412451e-01  -1.5647316857857252e-01  -2.4881046255752190e-01  -1.5306822479274451e-01  -1.7911952740847364e-01  -1.8929054058649256e-01  -1.4247702376517704e-01  -1.7242259834946197e-01  -1.3303217010684176e-01  -1.6208664339896026e-01  -1.4449532622596314e-01  -1.4399508923710522e-01  -1.5710877235920331e-01  -1.4558808097036396e-01  -1.9456044183699467e-01  -2.3192527879500932e-01  -1.6340522161722096e-01  -2.0904084808423493e-01  -1.3948007233432427e-01  -1.2959338294480302e-01  -1.8513888437994663e-01  -1.6988747897308129e-01  -1.3200257443428182e-01  -2.2126994187687171e-01  -1.9772773206120056e-01  -1.8002065200175196e-01  -1.4026460052607290e-01  -1.7174920080393133e-01  -1.5630881898805263e-01  -1.6805970679804533e-01  -1.8693338391718739e-01  -2.0105427514783286e-01  -2.0239812242324334e-01  -2.4412675793771541e-01  -1.6613618395233892e-01  -2.1236515772989223e-01  -1.5504331297462082e-01  -1.3092118753996893e-01  -1.3018781288119141e-01  -1.9734856653199265e-01  -2.4227874139882988e-01  -1.9568013883583457e-01  -1.8548858170643048e-01  -2.5845954011176581e-01  -2.6604657015310362e-01  -1.8757057323657481e-01  -1.5372587351522457e-01  -1.5076914327507129e-01  -1.8245803057749402e-01  -2.3217699829619515e-01  -1.4076922582306056e-01  -2.0312918709425765e-01  -1.9401854679090905e-01  -1.8939461386552883e-01  -2.2251151664587948e-01  -2.2302020353304558e-01  -1.4029090314906117e-01  -1.3144882757863696e-01  -1.6413605344498003e-01  -1.7093478560602673e-01  -2.5472992663697824e-01  -2.5987770587437109e-01  -1.6660273209515342e-01  -1.7926073448923277e-01  -1.8073671220321161e-01  -2.3633201960894279e-01  -1.7306093001745537e-01  -1.8345104999289105e-01  -2.3873373314838753e-01  -1.3542646163495040e-01  -1.7003336791256052e-01  -1.7176192118524986e-01  -1.4029449277749417e-01  -1.2976430175065523e-01  -1.5182774034890018e-01  -1.2841034215018135e-01  -1.2953371618460521e-01  -1.4059946396786024e-01  -1.4653869099135344e-01  -1.4713192933296232e-01  -1.4433660927383868e-01  -1.4608588430417102e-01  -1.3921370264959426e-01  -2.7605428523500997e-01  -2.6795966144368599e-01  -2.7501984583301575e-01  -1.3266069322634003e-01  -1.3196783450803551e-01  -1.4205285453012134e-01  -2.8171077267647893e-01  -1.7408209695439450e-01  -2.1964541216925315e-01  -2.1328976489467130e-01  -2.0493923562951444e-01  -1.5758229649358227e-01  -1.7907111613563742e-01  -2.1594097150486255e-01  -1.6028310548338753e-01  -1.6009478226285301e-01  -1.3008754765856959e-01  -1.2919031350266177e-01  -1.2805679703427122e-01  -2.5118117086696040e-01  -1.6378227729291747e-01  -1.6369019740361981e-01  -1.8724187618828869e-01  -1.4343840906742897e-01  -1.8604729137521647e-01  -1.6605682411346925e-01  -2.3306710025924945e-01  -1.7868207837106520e-01  -1.7246500867099973e-01  -1.4383801706306748e-01  -2.3335932440903265e-01  -1.4012976316471509e-01  -1.4847980792547735e-01  -2.1554043703116457e-01  -1.2915152648107028e-01  -2.4491099999538302e-01  -2.0591146375236233e-01  -1.5051167840750354e-01  -1.5269221432709676e-01  -1.5619817774341493e-01  -1.2859781712212515e-01  -1.9372254257940613e-01  -2.0242773540830239e-01  -1.2698859984509095e-01  -1.3832319470336776e-01  -2.1931696634997469e-01  -1.7976409330125898e-01  -1.7870819934758986e-01  -1.4636220610009457e-01  -1.6918334111139344e-01  -1.2707090193951973e-01  -1.5261131860143329e-01  -1.9560939677868280e-01  -1.3014580691415198e-01  -2.0303857415731372e-01  -2.4100880973101835e-01  -2.5294650294136450e-01  -2.5393879276411813e-01  -1.7885338569833314e-01  -1.8098740104265448e-01  -2.1298172139926216e-01  -1.2697801948560936e-01  -1.2701329425398339e-01  -1.2817467561134746e-01  -1.3211808830161370e-01  -1.2200487006322729e-01  -1.5683666673068603e-01  -1.4629421189926056e-01  -1.9702230056859119e-01  -1.2722897258183341e-01  -1.8737346009365888e-01  -1.4966911972137037e-01  -1.5224604389550594e-01  -1.6166326962791561e-01  -1.9674710165462067e-01  -1.9205438965472899e-01  -2.6517808129849108e-01  -1.4017654141526251e-01  -1.7835529011637358e-01  -2.1435461743347098e-01  -2.1033360662339337e-01  -1.2826847477565748e-01  -2.2961869148737657e-01  -2.3096576001565880e-01  -2.3338261683881445e-01  -2.2342697684375309e-01  -1.5728013195738605e-01  -2.0221775487844201e-01  -1.7192613937626353e-01  -1.8629124214825560e-01  -1.5884033189048224e-01  -1.4896931301298380e-01  -1.3650919148492285e-01  -1.8808454776722480e-01  -2.0611151636405861e-01  -2.5052443598047935e-01  -1.4133676441903320e-01  -2.3048904914585450e-01  -2.2598233993749728e-01  -1.4311646586218418e-01  -1.8995266527495494e-01  -1.8013759920916830e-01  -1.3562173935665173e-01  -1.9852230358732839e-01  -2.5795836626869817e-01  -2.2556392131222830e-01  -1.5849069202484697e-01  -1.4719284426156329e-01  -1.8840711417618752e-01  -1.4836347432489888e-01  -1.3115042664195037e-01  -1.8727918204449745e-01  -2.3557533931433905e-01  -1.2665508033823297e-01  -2.1080163004966629e-01  -2.0773601108106451e-01  -2.1233066520097846e-01  -1.4253270191950160e-01  -1.7603205608302658e-01  -1.8747709131250478e-01  -1.6968341582491248e-01  -2.4703946022154252e-01  -2.1827997158116280e-01  -1.2247422661375185e-01  -2.0400624175286669e-01  -1.6046344935726431e-01  -1.6080675044648696e-01  -1.4075838344039152e-01  -1.9995422986783523e-01  -2.0952756330101407e-01  -1.6602195028126543e-01  -1.6959933585668768e-01  -1.5768350128486264e-01  -1.5201432041252277e-01  -2.4400856571838872e-01  -1.9142171141567937e-01  -1.2823421146138042e-01  -1.3665988794036765e-01  -1.5294895785191995e-01  -2.0576913632989946e-01  -1.5657385722936290e-01  -1.9631177301845074e-01  -1.5236775427143581e-01  -2.4145852341109283e-01  -1.3701503103419163e-01  -1.7459906229827468e-01  -2.1745438503016257e-01  -1.6778499283532408e-01  -1.2515221162037149e-01  -2.2941943057587230e-01  -1.7449704571577498e-01  -1.9609232049531869e-01  -2.2601564384692507e-01  -1.3747456910960731e-01  -1.7843365904716732e-01  -2.1866579459342400e-01  -1.4052415422141290e-01  -1.3194042724583319e-01  -1.3940379582157114e-01  -1.2290187094904620e-01  -2.2320683232096575e-01  -2.4196214441922934e-01  -1.9952196510442149e-01  -2.3840094501248904e-01  -1.7271396367640560e-01  -1.8403557581453589e-01  -2.0603066188637364e-01  -1.4814834631331586e-01  -1.5016578143901421e-01  -1.9952823486441740e-01  -1.3851117037181063e-01  -2.2691911925844382e-01  -1.8437479633606305e-01  -2.4716067058322203e-01  -1.5967434167292258e-01  -2.3881552859643301e-01  -2.3099857762364512e-01  -2.1234557222353212e-01  -2.0034873906553874e-01  -2.0040800026682501e-01  -1.7115110319103485e-01  -1.6550580139028906e-01  -1.8231434059941595e-01  -2.6070488884429627e-01  -1.2365021537627630e-01  -1.3647251960791462e-01  -1.3455799543776692e-01  -1.3788744472012354e-01  -2.1126833267887049e-01  -1.2299446036003252e-01  -2.4006675970313709e-01  -2.1758730419588582e-01  -2.1021139269849806e-01  -1.4702570732973644e-01  -1.9027882392771114e-01  -1.9176216629753148e-01  -1.4882305187594339e-01  -1.8822180117368767e-01  -1.2138126580934017e-01  -1.3324401288891927e-01  -1.6149942377656437e-01  -1.4445916370589185e-01  -1.6282724893529124e-01  -1.4387540317196454e-01  -1.5641100436466357e-01  -1.8193433354107086e-01  -2.0719761366004022e-01  -2.6542584010170983e-01  -1.2169930487269148e-01  -1.2745847434706084e-01  -1.2871506159614182e-01  -2.2737791167743973e-01  -1.6762124585579941e-01  -1.7066375254508551e-01  -1.6868336550023713e-01  -1.2915010765972340e-01  -2.2398088328146964e-01  -1.4953042481651310e-01  -2.2451270649607227e-01  -2.2122512731694546e-01  -1.5700451762608642e-01  -1.7019032177778837e-01  -1.5756267747287750e-01  -1.2775009422652703e-01  -1.2811448987227336e-01  -2.1550136461423214e-01  -2.3578884281026835e-01  -2.0020073169793767e-01  -1.3498975897345866e-01  -1.4244447211936925e-01  -1.6433943504272849e-01  -1.7184873446192661e-01  -1.6757274291850230e-01  -1.6152305623297608e-01  -1.5416507378559954e-01  -1.4603862707329227e-01  -1.4826669168907763e-01  -2.0853872751738342e-01  -1.2161289299161571e-01  -1.4964601862173585e-01  -1.5107022151373944e-01  -1.5796636966116093e-01  -1.2698968150281773e-01  -1.3500899583050524e-01  -1.2778396476679796e-01  -1.2161974602691587e-01  -1.4657504940083696e-01  -1.4786275520700862e-01  -2.1784451744085598e-01  -2.1677900904777753e-01  -1.7972391388231532e-01  -1.3955601124320308e-01  -1.2846664417608331e-01  -1.7672074778313038e-01  -1.2641923515793416e-01  -1.3507187588783318e-01  -1.9964896325088044e-01  -1.9506092761173408e-01  -1.3454809877529966e-01  -1.4340844549032472e-01  -1.7441349180518734e-01  -2.2903183467000063e-01  -1.5804277559118249e-01  -1.3676204672100309e-01  -1.3844075438390341e-01  -2.6914588218310875e-01  -2.6362203063570672e-01  -2.6091863905740309e-01  -1.6648510577570677e-01  -1.2685659808052868e-01  -1.7104835642722355e-01  -2.3425499358397844e-01  -1.2702792313528824e-01  -1.3614847786850395e-01  -1.8825920610238786e-01  -1.7573586792238166e-01  -1.4789063453164333e-01  -1.2467626325940447e-01  -1.8313812523065584e-01  -1.3615441203247211e-01  -1.2720965985684710e-01  -2.3642694563803568e-01  -1.9006537373142227e-01  -1.7705231439382121e-01  -1.3802995345530106e-01  -1.2677634546280206e-01  -1.7237270257323964e-01  -1.6174536360523858e-01  -2.5263986929370708e-01  -1.8434201422499819e-01  -1.2189228567248225e-01  -1.9855790880073984e-01  -2.2508205317964880e-01  -2.0020141585822904e-01  -1.7062217418970391e-01  -2.0601189185856020e-01  -2.0491742252708270e-01  -2.1763882021848246e-01  -1.3829422294395186e-01  -1.6393805488272920e-01  -2.7058364388551448e-01  -2.0050321056596326e-01  -2.4570114719362643e-01  -2.4919256179152041e-01  -2.4500186383986450e-01  -2.5507260376861346e-01  -2.5538688144856675e-01  -1.2692586180612914e-01  -1.2145179517912978e-01  -1.9313306412765122e-01  -1.9296868699144903e-01  -1.9952314529988283e-01  -1.9516026266807410e-01  -2.7108095085309547e-01  -1.6588144838183128e-01  -1.3421072466043482e-01  -2.2256927611864633e-01  -1.4205238227504946e-01  -1.3855934555795002e-01  -1.3564381569353623e-01  -1.5886112027561863e-01  -1.3849573412877764e-01  -2.1781457730864554e-01  -1.5090667946910266e-01  -1.9216426668056236e-01  -1.3818380891177398e-01  -1.3394721719116306e-01  -2.8656564699922965e-01  -2.8566105014187076e-01  -1.4765217858266050e-01  -2.0117873967962316e-01  -1.3083333260382571e-01  -2.7711816564434466e-01  -1.5028685113501844e-01  -1.2634170826574878e-01  -2.4127400474578428e-01  -2.3839144852446625e-01  -1.7657302088730936e-01  -1.5217332914909140e-01  -1.8276044433819497e-01  -2.1867337882557802e-01  -1.2267511957652569e-01  -2.6982920871694860e-01  -1.4098864281256510e-01  -1.5338277370363715e-01  -2.2459931259971033e-01  -1.4588141528818965e-01  -2.5373272553743165e-01  -1.7794859461590554e-01  -1.4668763916465763e-01  -1.5358903737869434e-01  -1.6682272333051706e-01  -1.4801126561576983e-01  -1.7440913972763097e-01  -1.8072849144548414e-01  -2.0762519994578679e-01  -1.6952897608906600e-01  -1.5854838088796291e-01  -1.3230054758898632e-01  -1.2658777726081399e-01  -1.4886024432037495e-01  -2.0771165662757182e-01  -1.2821973474714193e-01  -1.2675718497281460e-01  -2.1195778828033010e-01  -1.2147112495303067e-01  -1.2326719739821014e-01  -1.2267121915862846e-01  -1.3045712527283335e-01  -1.2547036877590084e-01  -1.2358265828059624e-01  -1.8090799627104792e-01  -1.2383538166280825e-01  -1.2171586428074396e-01  -1.6934211220967182e-01  -1.7980084317106060e-01  -1.2156340546258367e-01  -1.2167210450066403e-01  -1.2168362512252753e-01  -2.2364437991670175e-01  -2.1303898576335592e-01  -2.0239465314003277e-01  -1.2303277900505727e-01  -2.4494277174997334e-01  -2.3336474168424184e-01  -1.5873152407773372e-01  -1.5938476399579671e-01  -1.2565247289026057e-01  -2.7607898304612183e-01  -1.4129160206100211e-01  -1.2179834891537952e-01  -2.5475020039749324e-01  -1.9045163048472538e-01  -2.7664475491716001e-01  -2.6613031908298729e-01  -1.2270464342021938e-01  -1.2103256443252251e-01  -1.1867469648161745e-01  -1.1878079482668226e-01  -1.9165497662514550e-01  -1.2303954139186611e-01  -2.5554563953635789e-01  -1.2185437761577048e-01  -1.2202006856593318e-01  -1.2173361099596403e-01  -1.6240721613169687e-01  -1.4323798390113593e-01  -1.8195279620373203e-01  -1.2826321237957541e-01  -1.9141276328701992e-01  -1.2935282084386518e-01  -2.4834214837298951e-01  -2.4500578490281363e-01  -2.5276167979054787e-01  -1.3863995812991681e-01  -2.6275687260058539e-01  -2.2847028477981715e-01  -2.5273213211160173e-01  -1.5551781098946277e-01  -2.0673135474770837e-01  -2.1866304803911810e-01  -1.5045149370856759e-01  -1.9179066626522992e-01  -1.8682866763924685e-01  -1.8204767691922416e-01  -2.0236645373638842e-01  -2.4590271739421946e-01  -2.5573163755012551e-01  -1.3771254594151730e-01  -1.6470084383278441e-01  -1.6059035305738131e-01  -1.4359855086507256e-01  -2.3857891042260118e-01  -1.2730770727472510e-01  -1.8834949902386061e-01  -1.5351398920297812e-01  -2.1105629834136677e-01  -2.2799770281301748e-01  -1.8902193045118029e-01  -1.5715665490567268e-01  -1.9302962195107082e-01  -2.2058221549120433e-01  -2.1430688135886217e-01  -1.6094970880124496e-01  -1.3512353892318840e-01  -2.3079025636215098e-01  -1.4470689498525618e-01  -1.4070857581987101e-01  -1.9270470877667076e-01  -1.7687132266514646e-01  -2.3294788592258600e-01  -1.7337017623545314e-01  -2.4679964565861523e-01  -1.3850679923406928e-01  -1.7814144434867701e-01  -1.7523380097022564e-01  -1.4770424400601215e-01  -1.6035694046097779e-01  -1.5822135410796961e-01  -1.5120208459872045e-01  -1.5207349811048385e-01  -1.4622722184926579e-01  -1.9723938715506942e-01  -1.5322242530859803e-01  -1.7106651952786345e-01  -2.0302341722453879e-01  -1.6527509707626328e-01  -1.6238177575677440e-01  -1.3253229365419733e-01  -1.9041721715236365e-01  -1.6748410039437570e-01  -1.6460857664946363e-01  -1.5147303305771914e-01  -1.5721005857591583e-01  -1.8453110354232496e-01  -1.8233560141436544e-01  -1.7505940028887743e-01  -2.1367216528416014e-01  -1.4397166841176384e-01  -1.3904707210574788e-01  -1.3819533653271612e-01  -1.4216147875050791e-01  -1.4548581208471650e-01  -1.3908949609257823e-01  -1.3597100937743867e-01  -1.8314256590522110e-01  -1.9248467572622008e-01  -1.3901295183141663e-01  -1.2804077109040440e-01  -1.4290844093743471e-01  -1.7556705446895882e-01  -1.9507639669278434e-01  -2.1061706777392969e-01  -1.8168855783730128e-01  -1.5511260445996902e-01  -2.3334037810428290e-01  -2.0102811418892713e-01  -1.3390825241909241e-01  -2.3783394036464436e-01  -1.6257515632180083e-01  -1.451174