<?xml version="1.0"?>
<VTKFile type="UnstructuredGrid"  version="0.1"  >
<UnstructuredGrid>
<Piece  NumberOfPoints="6454" NumberOfCells="12638">
<Points>
<DataArray  type="Float64"  NumberOfComponents="3"  format="ascii">0 1.5 0  0 0 0  1.5 0 0  1.5 1.5 0  0.75 0 0  1.5 0.75 0  0.75 1.5 0  0 0.75 0  0.75 0.75 0  0 0.375 0  0.375 0 0  0.375 1.5 0  0 1.125 0  1.5 0.375 0  1.125 0 0  1.5 1.125 0  1.125 1.5 0  1.0625 0.4375 0  0.4375 1.0625 0  0.5625 0.375 0  1.125 0.9375 0  0.3854166666666667 0.6979166666666666 0  0.8049568965517241 1.130387931034483 0  0.28125 0.28125 0  1.21875 1.21875 0  0.2175662878787879 0.9079071969696969 0  0.5625 1.303571428571429 0  0.8290441176470589 0.2738970588235294 0  1.303571428571429 0.5625 0  1.2578125 0.2421875 0  0.2421875 1.2578125 0  1.010416666666667 0.6979166666666666 0  0.2051282051282051 0.5216346153846153 0  0.9856455736880344 1.297298524562678 0  0.7653719096334186 0.5079390451832908 0  0.5481770833333334 0.8606770833333333 0  1.039462506743128 0.2044177382376396 0  0.5828641541157527 0.6178675878563986 0  0.9136904761904763 0.8913690476190476 0  1.3125 1.03125 0  0.6409183354192741 0.1798341677096371 0  1.281668526785714 0.7820870535714286 0  0.1875 0 0  0 0.1875 0  1.5 1.3125 0  1.3125 1.5 0  0.1920012972225798 0.7153938510340165 0  0.4043073677566794 0.4982626425332328 0  1.054735085357395 1.117171638214202 0  0.9375 0 0  0.5625 0 0  0.1875 1.5 0  1.3125 0 0  1.5 0.5625 0  0 0.5625 0  0 0.9375 0  0.5625 1.5 0  1.5 0.1875 0  0 1.3125 0  0.9375 1.5 0  1.5 0.9375 0  0.4468932545895913 0.1802144181965304 0  0.7987562970593343 1.318357727289711 0  0.6320399113235965 1.037924776639822 0  0.2603996068459564 1.080712106845956 0  0.3802379261363636 0.8658558238636362 0  0.3950892857142857 1.331473214285714 0  1.229910714285714 0.4095982142857143 0  1.13745405880473 0.5879074784276126 0  0.7482946595664349 0.917427298948138 0  0.8625423372573767 0.63562835295355 0  0.9012540315035069 0.4192242537897745 0  0.6862861647268528 1.220560482834343 0  0.1224516396650128 1.023194379059598 0  0.125 0.28125 0  0.3042571223994863 0.1326690407998288 0  0.4149781713917952 0.3488154858246145 0  1.359375 1.171875 0  1.3359375 1.3359375 0  1.131854448751258 1.346034816250419 0  0.84375 0.1212988551125148 0  0.1361607142857143 0.1361607142857143 0  0.691638521804216 0.3135510227244841 0  1.131379139752747 0.7872570780892659 0  0.9688853304056201 0.5429870982608649 0  1.134057265332395 0.3075921335077801 0  0.1060987903225806 1.21875 0  0.1387129645862553 1.361715427487219 0  1.393901209677419 0.28125 0  1.361287035413745 0.1382845725127811 0  1.21875 0.1060987903225807 0  0.3601433665263453 1.180455866526345 0  0.5483798738512705 1.157949853770241 0  1.36815753200686 0.4172967302747542 0  1.187531723571597 1.085953361785798 0  1.401785714285714 0.65625 0  0.65625 1.401785714285714 0  0.09804407994526333 0.84375 0  1.402254384056937 0.84375 0  0.28125 1.403363735808893 0  0.925464184745229 1.040966878346683 0  0.9340282126721275 1.174186719212852 0  0.8797957988728348 0.7651628218565172 0  0.9934051945542568 0.3266495984636094 0  0.203125 0.3887553418803418 0  0.3141644363520071 0.590454276924375 0  0 0.46875 0  1.254999444628736 0.9118761107425289 0  1.03125 1.5 0  0.3213923331757561 0.9738827583030052 0  0 0.65625 0  0.1159730568910257 0.609375 0  0.5141588149450601 0.7319349350549398 0  0.5326188770927806 0.499793044891493 0  0.6693710930845284 0.4331752184013763 0  0.7121702197229691 0.6260790780451906 0  1.234475471272342 0.6664938523856012 0  1.098390770327214 1.229886041743451 0  1.013464781580893 0.8203484622190179 0  0.2952629260823795 0.7791860223918741 0  0.4928385416666666 1.401785714285714 0  1.21875 1.5 0  0.6298376402880013 0.7702339567996885 0  0.7848608254810038 0.3893687681820236 0  1.5 1.40625 0  0.4622923140598757 1.236370233688302 0  0.4667991207677928 0.9473088592382519 0  0.2981266305022628 0.4537778927841646 0  0.84375 1.5 0  0.9008085981204581 1.384216576384643 0  0.9616882272291621 0.1155730914816442 0  0.5035849743784865 0.2782669836795798 0  1.009598009491631 0.9590831193486247 0  1.105310675430652 0.1118663280349183 0  0.9288474621627256 0.2227857609567891 0  0.7464170347051563 1.031945227193052 0  0.1125198733612451 0.4565759846003609 0  0.841690222029119 0.9722978654718903 0  0.4672907609250232 0.5973206048957169 0  0.5437787095683263 0.1151781905475824 0  0.7536044163845748 0.1896192335637668 0  0.65625 0 0  0.7049920363331066 0.09569941760663599 0  1.40625 1.078125 0  1.39081588470667 0.9535067694133395 0  1.40625 1.5 0  0.6375104178177308 0.9268732242701165 0  1.003645772935292 1.399729634730415 0  0.1610182417168329 1.124880958145783 0  1.304862449892061 0.3348605478786471 0  0.8685031591756179 0.5174815394805063 0  0.203125 0.2142857142857143 0  0.46875 0 0  1.236252628961601 1.388617949258287 0  0.6528472422531054 0.5380411271234069 0  0.8059365139027533 0.8342920789922936 0  1.210984939277725 0.5129097255512943 0  1.166392387042105 0.1947779113806861 0  1.03125 0 0  1.112027098777656 0.6868999874317245 0  1.4091796875 1.2626953125 0  0.7056210334910562 1.122831931927321 0  0.8445532731910484 1.225781273471752 0  1.401785714285714 0.5192199888552865 0  0.5315992325579575 1.02511262900491 0  1.40625 0 0  1.5 0.09375 0  0.09375 1.5 0  0 1.40625 0  0.09828267889765753 0.7453580504435201 0  0.2137299928547555 0.6195416563936835 0  0.191293077366709 0.8134420362003882 0  0.395652989337951 0.09620832696794322 0  0.3786395303236629 0.2546156254865724 0  1.105082759698279 1.033286095599126 0  0.09375 0 0  0 0.09375 0  1.269539180892899 1.136742542678697 0  0.4693126788152344 0.427799606155492 0  0.6022922682526717 0.2709632077670539 0  0.286537769267488 0.682999829576168 0  0.431696207163009 0.7833932160815852 0  0.6864071374811688 0.8459705255349474 0  0.7528727250742914 1.403406392299215 0  1.40615841291152 0.7499896558614008 0  0.46875 1.5 0  0.28125 1.5 0  1.5 0.84375 0  0.65625 1.5 0  1.5 0.46875 0  1.5 0.65625 0  1.21875 0 0  1.5 0.28125 0  0.84375 0 0  0.28125 0 0  0 0.28125 0  0 0.84375 0  0 1.03125 0  0 1.21875 0  1.5 1.03125 0  1.5 1.21875 0  1.203254432787244 0.991934092179911 0  0.7018429057870754 1.316240552056942 0  0.09232383443139219 0.9359101690420062 0  1.40390625 1.40390625 0  0.2348931380369949 0.995323396873026 0  0.3477301897825538 1.059746137541629 0  0.2397198755521273 1.168072125048833 0  0.21928098141281 0.08974206793316726 0  0.09164332482786468 0.3669827664371529 0  0.4604861261832766 1.147925083553434 0  1.208242546284113 0.8346339808272811 0  1.042270885119771 0.6063462845058686 0  1.320424270852333 0.6988339884515781 0  1.018211345242011 1.19612913087091 0  0.3232572989405801 0.3642302377411452 0  1.219683471513571 0.319825657354259 0  0.9022918689243919 0.3281052118114913 0  1.209245485719643 1.305564994554257 0  1.051234566759267 0.5217852582666107 0  0.3673510104646698 1.413627432420576 0  1.295769937043816 0.4720643981603306 0  0.3072023010063974 1.318381411439101 0  1.141690261405714 0.3964585327199988 0  1.132920129606929 1.151700997493917 0  0.4797323103182937 1.318677829548113 0  0.8975459458359925 1.296170152543854 0  0.464209749529605 0.8633392490855897 0  0.2934839260221656 0.8659218053661386 0  0.5291505402246311 0.1980703646347806 0  1.129554686622487 0.4893579115624633 0  0.6803878781969045 0.7035160631177291 0  1.32373046875 1.25048828125 0  1.32216796875 1.41767578125 0  0.5499851861317793 0.9439128053349233 0  1.022629866909724 1.040850270203209 0  0.5745442708333333 1.417645342938312 0  0.6210905905518814 0.07817000059074161 0  0.8251326424747147 1.051763251304391 0  0.9840195129520318 0.4094589843317338 0  1.335304710332526 0.8922471458140904 0  1.056578658899854 0.8909713350312058 0  0.6311277392046407 1.158870891931624 0  0.08048866130562571 1.097266504752301 0  0.7899471681381695 0.5900550615276262 0  0.787583911300231 0.6744258112570235 0  0.9253568605083915 0.6931779950154204 0  0.6069241236579608 1.236016193461046 0  0.9754544598564333 1.105608345312828 0  0.5891224709431884 0.6993621756793521 0  1.20518939408778 0.7458807514137317 0  0.7661039078070937 1.202429845202379 0  1.160750676252366 1.424456431149488 0  1.07906062607374 1.432028171475168 0  0.3800251736020173 0.4214243130004857 0  0.9386398271504294 0.6156244973145778 0  0.0625 0.234375 0  0.203125 0.2933407738095238 0  1.215434655272782 0.5908176357312523 0  0.3862873976850203 1.253958025454808 0  0.9642783311550196 0.7603191879845486 0  0.07907187269262334 0.5337704210040105 0  1.05323270401054 1.338218592033867 0  0.7809244217906405 0.07297738156489482 0  0.8538188665025647 0.1992768958275427 0  0.9002757663302332 0.06810835486946346 0  0.3896574912364178 0.6177519597715768 0  0.8312147565658268 0.4504658003252042 0  0.6060876899209792 0.4769383705177015 0  0.6973120163099531 0.973865749266754 0  0.2220506518942812 1.34123409472246 0  0.2016535060668421 1.419937676612376 0  1.067204461774397 0.7475876083618238 0  1.126113744622621 0.8622904019182541 0  0.3283697934586307 0.06033102762239553 0  0.3141768357227177 0.2102768223058998 0  0.8836591735735614 1.110539499889141 0  0.9335121559963067 0.9650712587476813 0  0.489881977219376 0.3554687673286838 0  0.1635028372004782 0.9601830799237989 0  0.190064339368102 1.055218085849877 0  0.4693032589410306 0.1089149617768512 0  0.826087350728517 1.388004148744978 0  1.071391321568866 0.357735705332231 0  1.056880377786583 0.2807740346831144 0  1.3359375 1.1015625 0  1.4296875 1.1484375 0  0.3906148988360577 0.9415494491776595 0  0.06145603826933142 1.359375 0  0.06985309644022948 1.2846420920388 0  1.438543961730669 0.140625 0  1.43014690355977 0.2153579079612006 0  0.161811455697184 1.281243264907209 0  1.2989767800824 0.08251937661177217 0  1.282654529021692 0.1634516867188552 0  1.343324227095839 0.2175851507697937 0  0.5747241214300347 1.087143402580354 0  0.1502172474800126 0.06370164366342397 0  0.07677312842259779 0.08704698619211086 0  0.06709364565267519 0.1592134266688963 0  0.1305803571428571 0
[...]
<PointData  Scalars="f_16-0"> 
<DataArray  type="Float64"  Name="f_16-0"  format="ascii">1.1363066530325612e-05  3.2997282593227503e-08  2.3129224844865443e-08  6.9984227651306407e-04  2.6887882618109625e-08  4.3341207342601323e-08  1.2440507262986786e-05  1.1366393857117260e-05  8.8734793109547581e-04  1.1269975849287709e-05  2.9433525527321842e-08  1.1362896515115320e-05  1.1364631326021439e-05  2.3241429837612936e-08  2.5040082507954032e-08  4.8950608625682246e-05  3.3102573805289921e-04  2.7076655966210656e-08  1.2935003416327119e-05  4.8614893166239129e-05  2.4936458674236863e-04  2.6732693134163150e-04  3.8898400547490827e-04  8.9402069907147262e-04  7.4649212960483464e-04  1.1396732658354166e-05  1.1750933079655292e-05  2.7286415556560187e-08  2.7750604585236329e-08  2.4362100302302646e-08  1.1363988412027101e-05  3.0199411874113361e-05  9.5435080541397130e-05  4.5252007183630810e-04  3.2904876063868932e-05  3.4506473652647047e-04  2.5462353335322156e-08  1.1342261888190174e-03  7.5677834038788384e-04  1.2201264861189990e-04  2.8341884430290784e-08  1.4309983028390174e-06  3.0152791747271036e-08  1.2121061529141814e-05  3.1009274897510555e-04  7.6693723735043150e-04  1.2402160240669428e-05  1.5394131993853920e-03  8.9924014159650355e-04  2.5910548092366231e-08  2.8537648340246637e-08  1.1363001503968653e-05  2.4132589463821372e-08  2.3276830131661371e-08  1.1367516299938169e-05  1.1365450677956158e-05  1.1381751227273740e-05  2.3214759469821193e-08  1.1363843837781020e-05  5.4345604718656452e-05  1.8379441079828107e-06  8.3640102134915103e-08  5.4894425847473034e-05  1.1937981378970862e-04  1.1365618659301302e-05  2.2967385743468531e-05  1.1365299047965709e-05  2.4613738208967657e-08  2.2777460080288227e-07  9.5468552011188426e-04  1.0677286885152674e-04  1.5540179911905344e-07  3.4630383583520638e-05  1.1365090532221328e-05  1.9157361575380546e-03  -1.4727595916466592e-08  4.5766675551548147e-04  2.8512916102325491e-04  7.0871231541935070e-04  7.2148116008508923e-04  2.6529393386130261e-08  -6.6354098911584710e-06  2.8328343860606055e-07  3.2455966423745988e-05  1.2888029729996821e-06  2.5053214484869447e-08  1.1364194164333606e-05  1.1363565637656760e-05  2.3689027499276017e-08  2.3895406447872665e-08  2.4566630770947834e-08  1.1381998432152486e-05  1.4251772260614533e-05  2.3862078294171185e-08  4.7071439685097933e-04  3.4867752173407059e-08  1.1995950329462979e-05  1.1365987085436666e-05  1.0089108693983337e-06  1.1363356811940719e-05  9.5691729767731655e-04  7.1200162604278573e-04  4.4051373217217355e-04  2.6016883009461788e-08  1.1313394910388425e-03  3.7921646827205084e-04  1.1370717433501482e-05  5.0472342200498556e-05  1.6065622392973528e-04  1.1747795713104789e-05  1.1367043833472836e-05  1.1708909629409019e-05  8.4299952795183208e-04  7.7333341337974554e-04  3.2150508170969052e-05  4.7636996636554258e-04  3.0529880411075847e-07  8.7463150229418916e-04  2.2522420139038508e-04  1.8060850707332638e-05  1.1375498025045207e-05  5.9961613712777580e-04  1.1329788886642904e-03  7.6993136083279546e-07  5.2785149320940113e-04  1.1489003713984960e-05  3.3003907367442693e-05  1.3938358868370345e-03  1.8645387280408997e-05  1.0741731816052598e-04  2.5871637076909594e-08  4.1851235512017823e-06  6.2153847544717624e-04  2.5117815690933951e-08  2.6191788747713953e-08  5.0346718583162825e-04  2.9367573086033441e-05  9.9669960259594968e-04  1.3331206175899481e-03  2.8640684747514315e-08  2.7456097681896352e-08  2.7681561904019996e-08  2.7601813969799485e-08  6.9976945276736683e-05  1.4773409300722651e-05  7.7882967425929649e-04  5.1280393286360075e-04  2.4499322265098949e-04  1.1364625803964699e-05  2.4154648340965675e-08  5.5329403833738063e-06  9.4695583010044571e-04  2.8991901845756734e-08  8.1325462354105409e-04  3.4507689217410417e-04  9.5517572035180799e-04  2.7652593656594502e-08  2.4851492240278779e-08  2.5459294084023747e-08  3.8154941977591441e-06  3.6811833018153398e-04  1.5229334116660331e-04  2.5769948837001599e-04  2.3739233078168598e-08  3.0652677625452221e-05  2.3578854073652869e-08  2.3142173101132884e-08  1.1363046054625109e-05  1.1363478115808590e-05  1.1368832053565599e-05  2.3994138678083910e-05  1.1445543035814393e-05  2.9453154433026952e-08  3.7090509112359854e-05  5.7261123070223075e-04  3.6585464010321608e-08  7.7726952707138286e-08  3.9686948970497595e-04  6.2030327654195568e-04  2.6643147650381561e-07  3.6311352849093048e-05  1.5900066978244399e-04  1.0266477112641146e-03  1.6219433833876773e-05  1.1263943495084255e-07  1.1363615272153319e-05  1.1362958585493042e-05  2.3254885946911220e-07  1.1492453297883927e-05  2.3241932629286792e-08  2.4588036646785676e-08  2.4541159666750120e-08  2.3242390706043455e-08  2.6430744863856916e-08  2.9789143904598523e-08  1.2087650634370360e-05  1.1365932539482189e-05  1.1365057578974333e-05  1.1364183088060214e-05  1.2226797863966511e-05  1.5313082999881696e-04  1.9447489222326780e-04  1.8865159781817643e-05  1.1365529554075287e-05  6.9536396934836303e-04  1.1370389914716406e-05  1.1563083695854752e-05  1.1364484590413471e-05  1.0489160392026414e-08  7.0842720786410237e-05  1.1928476544387622e-05  2.3329852220017615e-05  1.4552531475888408e-06  1.5575139141923400e-07  8.2588276449350388e-04  1.5968837857920331e-03  2.4585531368244717e-08  2.7803307891982987e-08  8.5606951628989104e-04  1.9202901694484409e-07  1.1363361740701864e-05  2.4380044868565793e-08  1.1363733790810627e-05  2.5213204943904023e-08  8.2942131216409351e-04  1.1405848978102693e-05  2.2134492852388693e-04  9.0564552482542648e-05  1.2834387367248459e-05  4.1308127452128180e-08  3.4247713531264836e-08  1.0435467231497612e-03  5.5927713100025617e-04  8.0906474395479422e-04  1.1617340134260020e-04  8.3482184630608741e-04  1.1431332127052019e-05  2.8226012000433599e-08  7.1608254863932738e-04  3.1564582224353389e-08  9.9406731586211147e-06  2.9405146219858109e-04  3.0119272527969939e-05  1.1364743807676558e-05  1.2936623410981851e-04  4.0392698957589072e-04  1.1535665041775589e-04  1.4584514375048680e-05  9.2630796049518547e-04  1.2407171554455652e-03  1.5531968371060577e-06  1.4299679430806057e-04  6.0718952035643964e-04  3.6445597379122471e-04  1.4043195487610895e-03  1.5803074034133537e-05  3.9413475231759779e-04  2.4611036894002054e-03  8.7105193810437494e-08  1.1370619590284599e-05  1.7142720472557003e-04  1.1586318966633392e-05  5.4228728837607651e-04  2.6848806273226308e-08  2.6698783056310932e-08  2.6132775245061634e-08  7.2406841092938006e-04  1.7414644538064252e-06  2.7810225577297850e-04  5.3692389211833984e-04  1.1363630755628637e-05  1.1363285680416067e-05  4.0976754303593161e-05  1.1756586004955130e-04  2.9863840117787744e-08  3.6667048174793879e-05  7.2805638558223892e-04  9.0740258283106561e-04  1.4987905233989073e-04  1.1365840400916330e-05  1.1365050776282490e-05  2.8863492550457804e-08  3.7414319747456422e-05  2.5549269454377334e-08  2.5446137345842926e-08  2.0211496308724085e-04  1.3234112983459358e-04  1.5946654254701315e-05  1.1363620374507690e-05  1.1363941662255166e-05  2.3474282855829506e-08  2.3564629308075790e-08  1.1363916911014169e-05  2.4193726634441971e-08  2.4239408355514697e-08  2.3951044112054675e-08  3.3028750964802946e-05  6.4475105101490929e-08  -1.0705511012600568e-06  4.9087742861395179e-05  2.7704987198960080e-03  2.3645998492357248e-08  1.1363275214726503e-05  1.1982836973958307e-05  1.1364705115442698e-05  2.5495664657016826e-08  2.8931001044690590e-08  3.3375157164230437e-08  5.4768376512615673e-06  1.1364285513467312e-05  4.8445576117671141e-04  9.9714461801322365e-04  8.8892218433068288e-04  1.5578987358719699e-05  2.3605536878646788e-08  2.4881895746195277e-08  1.1364457821858240e-05  2.3553057179223189e-08  4.6931912551014595e-04  1.1566754878445532e-05  1.1367388535292791e-05  6.8189886318576437e-07  5.3494803757079705e-05  4.0765959162917571e-04  2.5825925336980880e-08  4.5132345422438158e-04  9.1043798907876621e-08  1.2517846245976479e-05  2.5157814322005017e-08  8.0033727983258975e-04  4.7318541827190121e-04  2.4206207538546941e-08  2.8766697197701171e-08  3.6975052352650311e-08  1.1459945602910515e-05  2.4049562958551617e-08  1.2278884312791764e-05  2.6222860313505556e-08  6.1079344976220417e-05  2.6535873896494061e-04  6.2054918883253758e-04  2.4723949797314198e-08  1.2078712392308134e-05  1.1366204902949359e-05  1.1367709199092828e-05  5.2776802915501022e-07  1.3606175942910518e-06  1.2991030998226467e-03  2.5687675011905707e-08  8.5745533819211897e-04  2.5244265045485209e-08  1.0360803958556587e-05  5.9778909875637400e-04  1.1363344328624232e-05  1.4418609360947814e-04  1.0676018246147726e-03  2.0835117015477302e-03  1.1365241314606325e-05  1.1366944203425352e-05  1.6648001964541148e-07  3.4404170435417044e-08  1.6561355794168927e-05  1.1363303228183146e-05  6.9774400939137042e-04  1.2444243121857514e-04  9.3459225284189003e-06  4.1344157117198420e-08  7.6846797816701364e-04  7.2749518248727593e-04  1.1318494205904927e-07  4.8083301945122287e-05  6.4796464405710052e-04  3.2840260640819633e-04  1.1365713121939567e-05  7.7110501216157579e-04  3.5558864519114568e-06  8.7950117398318158e-04  1.0409953817318302e-03  1.3092995834152249e-05  1.8111303749926891e-04  3.8339384374482912e-05  1.0459882212719303e-03  7.5125608778672001e-04  3.0709135678641601e-04  1.1279177167676884e-03  2.5453501765364453e-08  2.4964823699583803e-08  3.1604582331486455e-05  1.3232832345295579e-07  3.1634707873318089e-06  1.0535100980229000e-05  1.7766441990855427e-05  1.2134158939056422e-03  4.5377818668708301e-04  5.1252186325708893e-05  6.5560958342479147e-05  1.1380300230038548e-05  3.4324482647965578e-07  6.4108910957952533e-08  1.1163629059308739e-04  5.8358561561111842e-07  1.6062545344229616e-05  1.3179047488787667e-04  1.1364694225306942e-05  1.2472670401658158e-03  2.3285778655080130e-08  2.4065249403641746e-08  1.3359040791210774e-05  1.1491306248355074e-05  1.1404404394393151e-05  4.3145402041867723e-04  1.0723431476147784e-04  1.8097864370886882e-03  1.9625624018840349e-04  1.1362927848668381e-05  1.1515494283921978e-03  1.0561426591064588e-03  4.3673222607606234e-04  6.7642268616232339e-05  3.7303650635567496e-05  6.9042577722006472e-04  2.2644691982687815e-04  2.0661953051089532e-05  1.6037077565118956e-05  8.9105222950013982e-05  5.9720953237919446e-04  8.9894063978378236e-04  8.5765714117080969e-04  2.9192393344594226e-08  8.3590554178419047e-06  1.1435293409456805e-05  1.1369481109742076e-05  2.4565754032501691e-08  7.3859480700361863e-04  2.7276687764342318e-08  2.6458715168230654e-08  3.6689329197732369e-04  2.7320917189993060e-04  1.9464494458466442e-05  2.9076525827741236e-08  2.3839534830216598e-08  3.3803474222817104e-05  2.5717530720512848e-08  1.1364993103786023e-05  6.9309962793687619e-04  2.5181616184108190e-08  1.1358814477536830e-04  7.9804604594893482e-04  1.4504822186841304e-03  8.9217881723062690e-04  2.8519806408243584e-08  2.3857268085479752e-08  1.1450655718893260e-05  1.1375230250322615e-05  1.0089769128444876e-04  2.3495998749302604e-04  3.1873158352925477e-08  2.4255496747404535e-08  1.1402800142444698e-05  1.2003794545914514e-05  8.6178292692097331e-04  1.1656957259355803e-05  2.8223133537431847e-08  1.1418586182459868e-05  2.4329341287344306e-08  2.4411596182295560e-08  1.2134123256038271e-05  1.3005775685331000e-04  8.5370784787413190e-04  4.1653887858432713e-04  2.6311317488828311e-08  1.1381413194301731e-05  2.3565590964275249e-04  2.4823677623362635e-08  3.8715200623624161e-07  2.1164986004813912e-05  2.7932049509218239e-08  2.7184808797956738e-08  2.7003085041957100e-08  3.1516924114185672e-08  1.1362958931027407e-05  8.1856625564830424e-04  7.6880416642106789e-04  1.1363489904636045e-05  5.6985645163626981e-05  1.0173532881030701e-04  2.6647391825830097e-08  4.2863714828822685e-04  7.6348967267832624e-04  2.8344975061736152e-04  4.4671031119305902e-04  3.8891492014087351e-04  6.5606517913278830e-04  1.1318268446071391e-04  2.3268155375042121e-08  3.4506089423963166e-06  3.0779404349338777e-06  7.5750250057486060e-04  1.1364568338938090e-05  6.8316207143376902e-04  2.4806211947126432e-08  1.5794883337987159e-05  2.9930254862722054e-08  2.3261637148604817e-08  2.3477222615760435e-08  1.1493574530253901e-05  2.8497679544948230e-08  1.1364749244584850e-05  1.1364862818512833e-05  4.1978572805440418e-07  7.0486167857910641e-04  3.0614873563991252e-08  9.6160701032627972e-04  9.4801805070825499e-04  2.8232392265020704e-07  2.7080327579718022e-05  7.3248337553117281e-05  9.2527121795026524e-07  1.1364900458617236e-05  1.1363144970252282e-05  1.1363132441654904e-05  2.7703432308949780e-08  2.7043342926323424e-05  2.7758903594027408e-08  2.3823463255063795e-08  4.1199675845375183e-06  9.1315792744681385e-07  3.5986188355049937e-04  1.1364203796253900e-05  2.5331858093353732e-04  2.4363141035632016e-08  2.7094462678738654e-08  2.8067768735208358e-08  4.5508391325549707e-06  1.0611085978669507e-03  2.7432593519294274e-04  2.8614395523239200e-06  2.3226091055070272e-08  3.0900494068207127e-08  6.2598134023421479e-08  2.4924668957782095e-08  4.2735494071710143e-05  6.7651139526092685e-05  1.6034447731417067e-04  3.1727151864024146e-05  2.3109614007817164e-08  3.0660682746933290e-08  1.2476575812225658e-03  2.4348935081181002e-08  1.3285836712288282e-05  2.1290580403415190e-05  3.6544497928939292e-06  3.2016812712090843e-04  2.1688314988013276e-04  8.7103738814771510e-05  3.2962493327264188e-04  5.5234860214302785e-04  1.2838288454043098e-06  2.3753607416923562e-08  1.1363794887958755e-05  1.1608892189410609e-05  1.2202033584858623e-04  3.1611349349150925e-07  4.1306718034800848e-04  2.3925994484818392e-08  4.7105560461835975e-05  2.9949244474638957e-03  4.3200250867916040e-05  2.3361350928029059e-08  1.1364691520559351e-05  4.4274880694101116e-04  1.1367464109067565e-05  1.1364501189047187e-05  2.3438307037610774e-08  1.1363452880753706e-05  2.6266737102455975e-08  1.0524503009593669e-03  5.4488154278074341e-04  1.1365696109191791e-05  1.3829773775905060e-05  2.3006412002790032e-05  2.1433217687978997e-04  5.3689873836546529e-04  2.4158030888094057e-04  3.6451453909462663e-05  1.8577413021546014e-07  2.3458047374730128e-08  9.0813401437238870e-04  2.1300346558890819e-04  5.5666585174746853e-05  2.7767394195729213e-08  9.4921975634725550e-05  1.0219185029468020e-03  1.5149094747207823e-05  9.4276036251095122e-04  1.1960025594290219e-05  2.1163839801562812e-07  2.4835662327980526e-06  1.0378635221301328e-07  1.1365459293182705e-05  1.1511741478769296e-05  1.1372715698037649e-05  2.9422641095743360e-08  2.7384383452798778e-08  3.4887858429074468e-08  2.5949537312333621e-08  2.3524647043011626e-08  1.1428127766292585e-05  3.9363175495520043e-04  8.0258301160971454e-04  7.5964460845375137e-08  2.8146080777816222e-08  3.0412398971975933e-04  5.5059602423908739e-04  1.3581947033055681e-05  1.2796258066159429e-05  2.3895609010807335e-08  3.6453959876433080e-04  1.8333151845027271e-04  4.0352443159557671e-04  8.4340673515313704e-04  2.7699568753350397e-04  3.7044446952736815e-04  5.6094290533322151e-04  2.6641292019244410e-08  6.5403581861300493e-04  1.1364041900264327e-05  2.3230327007379697e-08  2.7115961662691821e-05  1.2553078786722554e-03  7.3814610778800602e-04  6.6584339554487480e-04  1.5730245440732379e-04  1.5980095870579148e-05  7.0192320129637333e-07  1.0129763896330539e-04  4.6250672010500384e-04  -1.4836466226520388e-06  2.4390556772011958e-08  2.4050419069872924e-08  2.4581888873875523e-08  2.8392171034281559e-08  1.5165714138504032e-07  1.9092253895265070e-03  1.0593857083603562e-03  7.9301638229016210e-04  2.9657758690604331e-08  2.6117785856454436e-06  8.5716119275072592e-04  2.5465203232967570e-08  7.3145139019578436e-04  7.7717284103943931e-05  3.1170954914641000e-07  6.7518701662689909e-08  1.1363976995703561e-05  1.3141933479555698e-05  1.1366658670502966e-05  2.8515972522882050e-05  3.2244047602472721e-06  2.7169476393868037e-08  7.9710009185525400e-04  7.0492897002932733e-04  1.1363241766576685e-05  1.1363058633016149e-05  1.4701806648916508e-05  1.1365245307344528e-05  1.1363004372998189e-05  5.0684864175169298e-06  2.5274353698727337e-08  2.5703891938031587e-08  2.9495800458315668e-08  8.7207743936632969e-08  5.8211933653074148e-07  1.1366899178306568e-05  1.1366670323575256e-05  1.1366167940550187e-05  1.1409106115082594e-05  2.8798873632100472e-08  1.1364426202484355e-05  2.4810656000152081e-08  1.1363034767223701e-05  2.8467323668430366e-08  2.3201680321027385e-08  1.1363695173904753e-05  2.9602509795778156e-08  2.6142487239297296e-08  -1.4652696741221894e-08  1.0237712589039388e-05  2.2362859464818027e-04  1.1783763809716160e-05  3.9297157790120355e-04  6.5060903981224477e-04  7.3381367964521558e-04  1.1365687788480007e-05  2.7839011320055023e-05  1.1800686957615222e-05  1.1366476085906732e-05  2.9115504395573674e-05  2.2418403723513009e-04  1.1399084725243569e-05  2.5963785896911185e-08  -1.8967102973133079e-07  4.0219053945004389e-08  6.2019922713373146e-05  1.7435847187800802e-03  9.0689470071399474e-04  1.0291501159304013e-03  1.0449437013664325e-04  2.9947286282332025e-08  1.6116132296627307e-05  1.1364197727955946e-05  2.4223974420877193e-05  1.1365736907469972e-05  1.1365483543747413e-05  1.1365322552578650e-05  1.1366720767790984e-05  8.9392072814033153e-09  3.3304226469676859e-05  3.6278369040982007e-04  5.1536611603398576e-08  8.3932458950790084e-04  4.2301483853722673e-07  1.6605063525343448e-03  6.7045609827494877e-04  5.5471093032224035e-07  1.0014509084642717e-05  1.1365797334758546e-05  1.4644173220298222e-07  1.1675180949382554e-03  4.2845463030253165e-05  6.5363451189514221e-06  2.5714190829232104e-05  2.6624731908364216e-08  8.7216937327418023e-04  1.0031605206465501e-03  1.1842204157975764e-03  2.3545352036172125e-08  2.4914455894163508e-08  2.6959321703460932e-08  2.7865580247436986e-08  7.7791071848527544e-04  2.4916904299723071e-08  2.4071204346280720e-08  5.9960371164558818e-06  9.8342991915760915e-05  4.7987324249860539e-07  7.3839854881178803e-04  4.4640866096104319e-05  7.9372545119511391e-05  3.5987292149135817e-04  4.2318706466454642e-05  1.0836675751606311e-05  3.3760951471276491e-05  4.4308536635752704e-06  1.1365958274662845e-05  1.1933736069203492e-05  1.1378203548586947e-05  1.1847214513766015e-05  1.1364509883079223e-05  1.1364904710573230e-05  1.1784992848202879e-05  3.5492004048683426e-04  3.2405248445896873e-04  1.1591265562120828e-03  2.5880605354072909e-08  2.5197751335914799e-08  2.8360476678277434e-04  3.1816788175324941e-05  1.1364081449160709e-05  1.1366791420892433e-05  1.1424110447048074e-05  1.1365766267927989e-05  2.4159602053281795e-08  1.1363522869169275e-05  1.1363849376341004e-05  1.1363942606744370e-05  1.1363722519654081e-05  2.0603808550615453e-04  5.2889548352737952e-04  1.3763319715564392e-05  1.8658675837235656e-05  3.3235243067136530e-05  1.2116221342843397e-05  1.2980815411590077e-05  2.3524298389681615e-08  1.1437704437598639e-05  2.7770474810136610e-04  2.4646120336713281e-08  2.6842081326134617e-08  3.7171498032401715e-04  7.9140129542475926e-04  2.4967219865729715e-08  2.9653275841884922e-04  7.9406167137978411e-04  8.4620181185417675e-04  1.5257032240032468e-04  2.4440038769735011e-08  1.1369181354691754e-05  1.1363154204537873e-05  1.1769007015092727e-05  1.5688785123068893e-05  1.5099061363076620e-04  1.3547072234119279e-05  8.7509299040977747e-04  8.0958718410721608e-04  5.2941702560522249e-04  2.3764023514035683e-08  1.5480816408818270e-05  1.1363109184924778e-05  1.1364020548965841e-05  6.3609883135248111e-09  2.4808971067731737e-08  1.1363114542224761e-05  2.5020389059142411e-08  2.3733959373724730e-08  1.2117144311010557e-03  8.1689254553130963e-04  2.5883456512825130e-08  7.5074593201059797e-04  3.2457898718604997e-08  2.4415189373194343e-08  4.9948801573960284e-04  1.1363497364845216e-05  1.1363716562836769e-05  1.1363835674866272e-05  1.1363450135661077e-05  1.8990826639305440e-04  4.1680360990893709e-04  9.9004326150169391e-04  6.6317537