<?xml version="1.0"?>
<VTKFile type="UnstructuredGrid"  version="0.1"  >
<UnstructuredGrid>
<Piece  NumberOfPoints="6486" NumberOfCells="12696">
<Points>
<DataArray  type="Float64"  NumberOfComponents="3"  format="ascii">0 5 0  0 0 0  5 0 0  5 5 0  2.5 0 0  5 2.5 0  2.5 5 0  0 2.5 0  2.5 2.5 0  0 1.25 0  1.25 0 0  1.25 5 0  0 3.75 0  5 1.25 0  3.75 0 0  5 3.75 0  3.75 5 0  3.541666666666667 1.458333333333333 0  1.458333333333333 3.541666666666667 0  1.875 1.25 0  3.75 3.125 0  1.284722222222222 2.326388888888889 0  2.683189655172414 3.767959770114943 0  0.9375 0.9375 0  4.0625 4.0625 0  0.7252209595959597 3.026357323232324 0  2.763480392156863 0.9129901960784315 0  1.875 4.345238095238095 0  4.345238095238095 1.875 0  4.192708333333333 0.8072916666666664 0  0.8072916666666665 4.192708333333334 0  3.368055555555555 2.326388888888889 0  0.6837606837606839 1.738782051282051 0  3.285485245626782 4.324328415208927 0  2.551239698778062 1.693130150610969 0  1.827256944444444 2.868923611111111 0  3.464875022477093 0.6813924607921316 0  1.942880513719175 2.059558626187995 0  3.04563492063492 2.971230158730159 0  4.375 3.4375 0  2.13639445139758 0.5994472256987903 0  4.272228422619047 2.606956845238095 0  0.625 0 0  0 0.625 0  5 4.375 0  4.375 5 0  0.6400043240752655 2.384646170113389 0  1.347691225855598 1.660875475110776 0  3.515783617857982 3.723905460714006 0  3.125 0 0  1.875 0 0  0.625 5 0  4.375 0 0  5 1.875 0  0 1.875 0  0 3.125 0  1.875 5 0  5 0.625 0  0 4.375 0  3.125 5 0  5 3.125 0  1.489644181965304 0.6007147273217681 0  2.054597701149425 3.742302955665024 0  2.662520990197781 4.39452575763237 0  2.415835363784578 3.165530021913244 0  0.8679986894865213 3.602373689486522 0  1.267459753787878 2.886186079545454 0  4.099702380952381 1.365327380952381 0  1.316964285714286 4.438244047619047 0  3.7915135293491 1.959691594758709 0  2.875141124191255 2.118761176511833 0  3.00418010501169 1.397414179299248 0  0.4081721322167092 3.410647930198662 0  0.4166666666666666 0.9375 0  1.014190407998288 0.4422301359994293 0  1.383260571305984 1.162718286082048 0  4.53125 3.90625 0  4.453125 4.453125 0  3.772848162504192 4.48678272083473 0  2.8125 0.404329517041716 0  0.4538690476190476 0.4538690476190476 0  2.305461739347387 1.04517007574828 0  3.771263799175824 2.624190260297553 0  3.229617768018734 1.809956994202883 0  3.780190884441317 1.025307111692601 0  4.646337365591398 0.9375 0  4.537623451379149 0.4609485750426037 0  1.200477888421151 3.934852888421152 0  0.3536626344086022 4.0625 0  0.4623765486208503 4.539051424957397 0  4.0625 0.353662634408602 0  4.560525106689535 1.390989100915847 0  3.958439078571988 3.619844539285994 0  4.672619047619047 2.1875 0  2.1875 4.672619047619047 0  1.862808494877602 3.325947624431087 0  0.3268135998175443 2.8125 0  4.674181280189791 2.8125 0  2.283233994935276 4.138623547175983 0  0.9375 4.677879119362977 0  3.08488061581743 3.469889594488945 0  3.113427375573758 3.913955730709506 0  1.652847799068813 3.950848935641292 0  2.932652662909449 2.550542739521724 0  3.311350648514189 1.088831994878698 0  0.6770833333333333 1.295851139601139 0  0 1.5625 0  1.047214787840024 1.96818092308125 0  4.183331482095785 3.03958703580843 0  3.4375 5 0  1.071307777252521 3.246275861010018 0  0 2.1875 0  0.386576856303419 2.03125 0  1.713862716483534 2.439783116849799 0  1.775396256975935 1.665976816304977 0  2.231236976948428 1.443917394671254 0  2.373900732409897 2.086930260150635 0  4.114918237574474 2.221646174618671 0  3.661302567757379 4.099620139144836 0  3.378215938602977 2.734494874063393 0  0.9842097536079312 2.597286741306247 0  1.642795138888889 4.672619047619047 0  4.0625 5 0  2.099458800960004 2.567446522665629 0  2.616202751603346 1.297895893940078 0  5 4.6875 0  0.9937554350075428 1.512592975947215 0  2.8125 5 0  3.002695327068194 4.614055254615477 0  3.205627424097207 0.3852436382721472 0  1.678616581261621 0.927556612265266 0  3.365326698305438 3.196943731162083 0  1.554834936170314 3.120009882655813 0  3.108408340729323 0.7797187795784133 0  3.684368918102174 0.3728877601163941 0  2.716214835303553 3.39276351922003 0  2.37718583984784 3.551973401560441 0  0.3750662445374837 1.52191994866787 0  2.679073487930202 2.844160731602957 0  1.557635869750078 1.991068682985722 0  1.812595698561088 0.3839273018252746 0  2.512014721281916 0.6320641118792227 0  2.1875 0 0  2.349973454443689 0.3189980586887866 0  4.6875 3.59375 0  4.636052949022233 3.178355898044465 0  4.6875 5 0  3.345485909784306 4.665765449101383 0  0.536727472389443 3.749603193819277 0  4.349541499640203 1.116201826262156 0  2.886559045931982 1.774013674579691 0  0.6770833333333334 0.7142857142857143 0  1.5625 0 0  4.120842096538671 4.628726497527622 0  2.176157474177018 1.793470423744689 0  2.175650736889416 2.909863021769539 0  4.036616464259081 1.709699085170981 0  3.887974623473683 0.6492597046022868 0  3.4375 0 0  3.70675699592552 2.289666624772415 0  4.697265625 4.208984375 0  2.815177577303495 4.085937578239174 0  4.672619047619047 1.730733296184288 0  4.6875 0 0  5 0.3125 0  0.3125 5 0  0 4.6875 0  0.3276089296588581 2.484526834811734 0  0.712433309515852 2.065138854645612 0  0.6376435912223634 2.711473454001295 0  1.184991292170422 0.7222504400947201 0  1.31884329779317 0.3206944232264773 0  3.683609198994263 3.44428698533042 0  0.3125 0 0  0 0.3125 0  4.231797269642997 3.789141808928991 0  1.564375596050781 1.425998687184973 0  2.007640894175573 0.9032106925568466 0  0.955125897558294 2.276666098587227 0  1.43898735721003 2.611310720271951 0  1.954491523717513 4.040700257877075 0  1.752947649777421 3.652439445419346 0  2.509575750247638 4.678021307664052 0  4.687194709705067 2.499965519538002 0  1.5625 5 0  0.9375 5 0  5 2.8125 0  2.1875 5 0  5 1.5625 0  5 2.1875 0  4.0625 0 0  5 0.9375 0  2.8125 0 0  0.9375 0 0  0 0.9375 0  0 2.8125 0  0 3.4375 0  0 4.0625 0  5 3.4375 0  5 4.0625 0  4.010848109290813 3.306446973933037 0  0.3077461147713075 3.119700563473354 0  4.6796875 4.6796875 0  2.333079012424948 3.845757959077508 0  0.7829771267899832 3.317744656243421 0  1.159100632608513 3.532487125138763 0  0.799066251840424 3.893573750162776 0  1.57326499580282 4.255438189102632 0  0.7309366047093668 0.2991402264438908 0  0.3054777494262156 1.223275888123843 0  4.027475154280377 2.78211326942427 0  2.35270874745988 4.426658168476266 0  3.474236283732569 2.021154281686229 0  4.401414236174444 2.329446628171927 0  3.39403781747337 3.987097102903034 0  1.077524329801934 1.214100792470484 0  4.065611571711903 1.066085524514197 0  2.165399002716117 3.335637450367864 0  3.007639563081306 1.093684039371638 0  4.030818285732145 4.351883315180857 0  3.504115222530889 1.739284194222036 0  1.224503368215566 4.712091441401919 0  3.805634204685714 1.321528442399996 0  4.319233123479386 1.573547993867769 0  1.024007670021325 4.394604704797005 0  3.776400432023095 3.839003324979723 0  2.991819819453308 4.320567175146181 0  0.9782797534072181 2.886406017887129 0  1.763835134082104 0.6602345487826022 0  3.765182288741625 1.631193038541544 0  2.267959593989681 2.345053543725764 0  4.412434895833333 4.168294270833333 0  4.4072265625 4.7255859375 0  2.791493971314009 3.11210833271929 0  3.408766223032414 3.469500900677365 0  1.915147569444444 4.725484476461039 0  2.070301968506271 0.2605666686358055 0  2.767932250651506 1.530295992695836 0  3.280065043173439 1.364863281105779 0  4.45101570110842 2.974157152713635 0  3.521928862999512 2.96990445010402 0  2.552921961347576 4.008414007169315 0  0.2682955376854191 3.657555015841003 0  3.084522868361304 2.310593316718068 0  2.669255823227708 1.939379494498064 0  2.615884629473921 2.238841231570381 0  1.405652091971449 0.8877813821442277 0  3.25151486618811 3.68536115104276 0  1.963741569810629 2.331207252264507 0  4.017297980292599 2.486269171379106 0  3.869168920841219 4.748188103831625 0  3.596868753579134 4.77342723825056 0  2.41262958240343 2.764128584995838 0  1.266750578673391 1.404747710001619 0  1.559243962241121 2.85146506328516 0  3.128799423834764 2.052081657715259 0  0.6770833333333333 0.9778025793650794 0  0.2083333333333333 0.78125 0  1.978224492765132 3.087074731032578 0  4.051448850909273 1.969392119104174 0  1.320577095006813 4.172234780971559 0  3.214261103850064 2.534397293281829 0  0.2635729089754111 1.779234736680035 0  3.510775680035133 4.460728640112889 0  2.603081405968802 0.2432579385496493 0  2.866341315154884 0.6662105505481998 0  3.000919221100777 0.2270278495648781 0  1.298858304121393 2.05917319923859 0  2.020292299736597 1.589794568392338 0  0.7401688396476035 4.470780315741533 0  0.6721783535561408 4.733125588707921 0  3.753712482075402 2.874301339727514 0  3.557348205914658 2.491958694539413 0  1.094565978195436 0.2011034254079851 0  0.9338148378011396 0.6833568465908735 0  2.945530578578538 3.701798332963805 0  3.111707186654356 3.216904195825605 0  1.341791111822685 3.293123262233967 0  1.632939924064587 1.184895891095613 0  0.6335477978936732 3.517393619499591 0  0.5576014611130192 3.210998966942492 0  1.564344196470102 0.3630498725895039 0  2.75362450242839 4.626680495816594 0  3.571304405229554 1.192452351107437 0  3.522934592621944 0.9359134489437148 0  4.453125 3.671875 0  4.765625 3.828125 0  1.055906321410838 4.14310472322957 0  4.795146539102229 0.46875 0  4.767156345199235 0.7178596932040019 0  0.2048534608977711 4.53125 0  0.232843654800765 4.282140306795998 0  0.5393715189906129 4.270810883024032 0  4.329922600274667 0.2750645887059072 0  4.275515096738972 0.5448389557295173 0  4.477747423652795 0.7252838358993123 0  0.2002829820452772 0.46875 0  0.4352678571428572 0.6956845238095237 0  0.5007241582667088 0.2123388122114133 0  4.672890923830735 0.2500902110494848 0  0.4308009280819452 4.783624996516437 0  2.104871305393774 4.438653689007242 0  0.2274454167838428 0.2274454167838428 0  3.446466574593436 0.4359605369011901 0  2.12354112127588 1.217588426759619 0  2.309175236825235 0.7888355970690434 0  2.556178570281936 1.054299163237582 0  0.578683248637
[...]
<PointData  Scalars="f_800-0"> 
<DataArray  type="Float64"  Name="f_800-0"  format="ascii">-1.6270002146129633e-01  -3.2763729678085246e-01  -1.5861511056300878e-01  -1.5323051648017422e-01  -2.4353935137901839e-01  -1.5844737874538944e-01  -1.6004799596331357e-01  -2.4458925258741404e-01  -2.3922030341566553e-01  -2.8704398063497710e-01  -2.8625851582291362e-01  -1.5907762583801480e-01  -2.0166759329616399e-01  -1.5845196236480980e-01  -2.0092353373352456e-01  -1.5869993764849916e-01  -1.5952802957317128e-01  -2.0785330490325921e-01  -2.0904346984807723e-01  -2.6495412604021401e-01  -2.0092907984377611e-01  -2.5026842757295786e-01  -2.0120681750375458e-01  -2.9343430391596381e-01  -1.8515429362457742e-01  -2.2658676466071556e-01  -2.3439694350689691e-01  -1.8216532833920804e-01  -1.8060213751985810e-01  -1.8556595669019857e-01  -1.8796661434945747e-01  -2.1414228573580849e-01  -2.7030844004330007e-01  -1.8230967898879175e-01  -2.4189228269124971e-01  -2.3179165764290841e-01  -2.1039367170435230e-01  -2.5627088017805738e-01  -2.2150915531801729e-01  -1.7985445287776891e-01  -2.5591855889999326e-01  -1.8312457021820783e-01  -3.0758664507804950e-01  -3.0819723680433059e-01  -1.5852447098530648e-01  -1.5898543588624617e-01  -2.4852228449233019e-01  -2.7177910891388585e-01  -1.9985621426779071e-01  -2.2186649088582294e-01  -2.6470901240404204e-01  -1.6168263712782457e-01  -1.7959605840842391e-01  -1.5822675984945272e-01  -2.6576805585294172e-01  -2.2311877196512986e-01  -1.5981082514823447e-01  -1.5853137111572752e-01  -1.8326701222311045e-01  -1.5981909048031534e-01  -1.5848363734209478e-01  -2.7806387132188354e-01  -2.0235241087898156e-01  -1.8004073222027922e-01  -2.2173287857092611e-01  -2.0688376253523938e-01  -2.3156592220824376e-01  -1.8879047275997693e-01  -1.7869123744598017e-01  -1.9953650378875676e-01  -2.3086294532896440e-01  -2.2633283767198295e-01  -2.1340653335893639e-01  -2.9757698725422671e-01  -2.9431307682582114e-01  -2.8084477400616098e-01  -1.7438173778257815e-01  -1.7167879583311974e-01  -1.7647634545634916e-01  -2.3279317120968049e-01  -3.1040489745203387e-01  -2.5032984584408580e-01  -2.0046199739458842e-01  -2.1879150045082854e-01  -1.9970238034976007e-01  -1.7028285874732516e-01  -1.7407994025868159e-01  -1.9556228488750668e-01  -1.9100178468726095e-01  -1.7481273618576723e-01  -1.9015524865629532e-01  -1.7298259316504208e-01  -1.9267186427501667e-01  -1.6941334828607868e-01  -1.7099323364761623e-01  -2.1638294219220849e-01  -2.3390392654889045e-01  -1.6936036090269649e-01  -1.8883058963193858e-01  -1.7010487201934749e-01  -2.1005684357187471e-01  -1.9624027428189977e-01  -1.9516464076877751e-01  -2.2824472400977844e-01  -2.1567193122860642e-01  -2.8534737377964403e-01  -2.7641866729541287e-01  -2.6247559474880422e-01  -1.8647279629541288e-01  -1.5970243530343337e-01  -2.1904459381835609e-01  -2.5513556399341059e-01  -2.6088657882591609e-01  -2.4632989548944406e-01  -2.6605950611087748e-01  -2.5279335835340272e-01  -2.4707619611922846e-01  -1.8836608864955806e-01  -1.8876977146168777e-01  -2.1367384600354658e-01  -2.4117150869587997e-01  -1.7041048319786767e-01  -1.5937890493230272e-01  -2.4158871275280155e-01  -2.3978709882912444e-01  -1.5686598833882096e-01  -2.7777579017295267e-01  -1.5997448172017595e-01  -1.7276712732714422e-01  -2.1921465803716650e-01  -2.7164364149344555e-01  -2.1174270379558791e-01  -2.2351354226857720e-01  -2.2266881177535883e-01  -2.0280954005494187e-01  -2.1385669413073538e-01  -2.0857651475890127e-01  -2.7770486107781955e-01  -2.2968618489307019e-01  -2.6144250529808521e-01  -2.6696326148527044e-01  -2.4295423960256035e-01  -2.5402222147957154e-01  -2.4840979062555577e-01  -1.6919007501262373e-01  -1.7077725348324327e-01  -1.5718760644226132e-01  -1.7061844882929944e-01  -2.0164187141880330e-01  -1.8017559185470483e-01  -2.3064472723325985e-01  -3.0165950262462365e-01  -2.7552941440199369e-01  -1.7096151873616214e-01  -2.5437633483612904e-01  -2.3040690844583242e-01  -1.9095714349727591e-01  -1.9587493200711242e-01  -2.1136912559465987e-01  -2.0249048115238344e-01  -1.6813369784364302e-01  -1.9057778024072339e-01  -1.6923256538727427e-01  -1.6897275828407449e-01  -1.5861115427654882e-01  -1.6305542688968733e-01  -1.7258514319909413e-01  -2.4500971240847272e-01  -2.5926201271609778e-01  -2.3727337212232352e-01  -2.8849932069709550e-01  -2.8389666152196519e-01  -2.0141723343877038e-01  -3.1828135954475339e-01  -3.1896219032745771e-01  -1.8384994655076187e-01  -2.7371365666172875e-01  -2.6043178749791773e-01  -2.5202068448449805e-01  -2.4068653380306179e-01  -1.9226973419139592e-01  -2.0533071544296866e-01  -1.7064501662528289e-01  -1.6889120026759724e-01  -1.6011841203840824e-01  -1.5970253272499782e-01  -1.5852287423315040e-01  -1.5976956836448922e-01  -1.5827557091445768e-01  -1.5830270361895027e-01  -1.9024635886266994e-01  -1.5863207460977402e-01  -2.3261681162551504e-01  -2.9689010521716486e-01  -2.9762839183884793e-01  -2.3378474313960781e-01  -2.1238687633160089e-01  -1.9018017307424240e-01  -1.5859001958878446e-01  -1.5873255349268445e-01  -1.9212414192100943e-01  -2.2331354227380745e-01  -1.6393167416835758e-01  -1.9878535594060917e-01  -2.1666375401648558e-01  -2.0940117480253331e-01  -1.9709257999686616e-01  -1.8494524018359118e-01  -3.0396546582543732e-01  -2.8788177188766823e-01  -1.9167371590184779e-01  -1.7941158846972530e-01  -2.1041945607118745e-01  -1.7855689203863168e-01  -1.9329344502172835e-01  -2.8563073901816727e-01  -1.8988850126783055e-01  -2.1593980386765974e-01  -2.2611081704688646e-01  -1.7929730012330286e-01  -2.0924287480960346e-01  -1.6985048036401021e-01  -1.9890691986066114e-01  -1.8131560269953031e-01  -1.8081438352202789e-01  -1.9392904881362216e-01  -1.8240835736209698e-01  -2.3138071838816296e-01  -2.6874555525561272e-01  -2.0022549807762574e-01  -2.4586112454477746e-01  -1.7630034871524380e-01  -1.6641365853454373e-01  -2.2195916084026007e-01  -2.0670775543258108e-01  -1.6882090699743552e-01  -2.5809021833744528e-01  -2.3454800852167579e-01  -2.1684092846201317e-01  -1.7708487691867142e-01  -2.0856947726366104e-01  -1.9312909539523015e-01  -2.0487976107284703e-01  -2.2375366037755426e-01  -2.3787455160833051e-01  -2.3921839888375043e-01  -2.8094703439834656e-01  -2.0295646040975104e-01  -2.4918543419044537e-01  -1.9186358943362677e-01  -1.6774146236734788e-01  -1.6700808709784729e-01  -2.3416884299247329e-01  -2.7909901785946312e-01  -2.3250041529535567e-01  -2.2230885816676751e-01  -2.9527981657242519e-01  -3.0286684661376961e-01  -2.2439084969714568e-01  -1.9054614997528149e-01  -1.8758879938086956e-01  -2.1927830703776860e-01  -2.6899727475673241e-01  -1.7758950193354869e-01  -2.3994946355475799e-01  -2.3083882325134694e-01  -2.2621489032589964e-01  -2.5933179310645932e-01  -2.5984047999362569e-01  -1.7710990808901270e-01  -1.6826680051883572e-01  -2.0095632990336898e-01  -2.0775506206568181e-01  -2.9155020309762808e-01  -2.9669798233502925e-01  -2.0342300855136136e-01  -2.1608101094942367e-01  -2.1755698645342889e-01  -2.7315229606955721e-01  -2.0988104970935398e-01  -2.2027124759632108e-01  -2.7555400960900689e-01  -1.7224662692663456e-01  -2.0685364437286990e-01  -2.0858219764558994e-01  -1.7711476914429947e-01  -1.6658457753347999e-01  -1.8864742153752481e-01  -1.6523061138725120e-01  -1.6635398809440755e-01  -1.7741843995028581e-01  -1.8335806055202722e-01  -1.8395137623233024e-01  -1.8115688554035567e-01  -1.8290616069871266e-01  -1.7603397866573323e-01  -3.1287456169568661e-01  -3.0477993790435670e-01  -3.1184012229369062e-01  -1.6948096617267353e-01  -1.6878588050208629e-01  -1.7887256407877636e-01  -3.1853104913715879e-01  -2.1090237341480406e-01  -2.5646568862982272e-01  -2.5011004135521908e-01  -2.4175951209002844e-01  -1.9440214845018033e-01  -2.1589139259584689e-01  -2.5276124796542188e-01  -1.9710301553550152e-01  -1.9691505872685064e-01  -1.6690782180532560e-01  -1.6601058844359920e-01  -1.6487707288158979e-01  -2.8800144732760524e-01  -2.0060239665572027e-01  -2.0051019798097156e-01  -2.2406215264865728e-01  -1.8025868548180868e-01  -2.2286756783558667e-01  -2.0287710057511890e-01  -2.6988737671985652e-01  -2.1550235490107300e-01  -2.0928528529683577e-01  -1.8065829354192817e-01  -2.7017960086963916e-01  -1.7695003956955879e-01  -1.8530007150930006e-01  -2.5236071349829603e-01  -1.6597180184389596e-01  -2.8173127645600826e-01  -2.4273174021361518e-01  -1.8733195485209658e-01  -1.8951249077836452e-01  -1.9301845421421671e-01  -1.6541626013616059e-01  -2.3054279308244116e-01  -2.3924798982306547e-01  -1.6380887469935387e-01  -1.7514347104532199e-01  -2.5613724281054939e-01  -2.1658436976153642e-01  -2.1552847580782389e-01  -1.8318248249414554e-01  -2.0600361757264682e-01  -1.6389117708542705e-01  -1.8943159501645482e-01  -2.3242967323914943e-01  -1.6696375927666449e-01  -2.3985885061781911e-01  -2.7782908619164298e-01  -2.8976677940201595e-01  -2.9075906922476746e-01  -2.1567366215856965e-01  -2.1780758022291802e-01  -2.4980199815533494e-01  -1.6379829413657740e-01  -1.6383356897557841e-01  -1.6499403509239363e-01  -1.6893614470612917e-01  -1.5882514490499450e-01  -1.9365694318544022e-01  -1.8311448834471183e-01  -2.3384257702905861e-01  -1.6404924673947990e-01  -2.2419373655401079e-01  -1.8648939611835932e-01  -1.8906598550152193e-01  -1.9848351332920974e-01  -2.3356737811510470e-01  -2.2887461816566820e-01  -3.0199835775915607e-01  -1.7699681779155074e-01  -2.1517556657635473e-01  -2.5117489389403147e-01  -2.4715388308393221e-01  -1.6508855523300089e-01  -2.6643896794797617e-01  -2.6778603647626065e-01  -2.7020289329942782e-01  -2.6024725330433751e-01  -1.9410040842057377e-01  -2.3903803133894788e-01  -2.0874641583996889e-01  -2.2311151860825906e-01  -1.9566060159738261e-01  -1.8578937689588879e-01  -1.7332946780011202e-01  -2.2490482422817631e-01  -2.4293179282457741e-01  -2.8734471244112236e-01  -1.7815596163460110e-01  -2.6730932560639536e-01  -2.6280261639809277e-01  -1.7993674227493472e-01  -2.2677294173538748e-01  -2.1695787566942382e-01  -1.7244201559778810e-01  -2.3534258004780245e-01  -2.9477864272935339e-01  -2.6238419776867494e-01  -1.9531096848524543e-01  -1.8401312071351533e-01  -2.2522739063655670e-01  -1.8518375077925422e-01  -1.6797068068546825e-01  -2.2409945849867779e-01  -2.7239561577495353e-01  -1.6347533909245143e-01  -2.4762190651020582e-01  -2.4455628754159228e-01  -2.4915094166152418e-01  -1.7935297831407984e-01  -2.1285223875662856e-01  -2.2429735694297048e-01  -2.0650369228437118e-01  -2.8385973668218223e-01  -2.5510024804174308e-01  -1.5929054855264890e-01  -2.4082651821338863e-01  -1.9728372580471520e-01  -1.9762702690409473e-01  -1.7757865963322811e-01  -2.3677450632242691e-01  -2.4634783976242364e-01  -2.0284204024892039e-01  -2.0641961231631262e-01  -1.9450377773636757e-01  -1.8883459685727874e-01  -2.8082884217901899e-01  -2.2824198787607014e-01  -1.6505192255375276e-01  -1.7347863752885501e-01  -1.8976923431952042e-01  -2.4258941279041485e-01  -1.9339377169228944e-01  -2.3313204947889990e-01  -1.8918803067475742e-01  -2.7827879987171800e-01  -1.7383530724742180e-01  -2.1141919270545309e-01  -2.5427466149072919e-01  -2.0460526929660583e-01  -1.6197248632463210e-01  -2.6623970703647454e-01  -2.1131732217570137e-01  -2.3291259695578018e-01  -2.6283592030751268e-01  -1.7429484373088439e-01  -2.1525393550657082e-01  -2.5548607106770921e-01  -1.7734442214592075e-01  -1.6876070327540951e-01  -1.7622407224141109e-01  -1.5971860929587833e-01  -2.6002710878154611e-01  -2.7878242087985661e-01  -2.3634224156490791e-01  -2.7522122147305639e-01  -2.0953424013536334e-01  -2.2085585227485974e-01  -2.4285093865857435e-01  -1.8496862269998068e-01  -1.8698605786015582e-01  -2.3634851151355532e-01  -1.7533021501232374e-01  -2.6373939571902144e-01  -2.2119507279638798e-01  -2.8398094704385940e-01  -1.9649461813859265e-01  -2.7563580505705276e-01  -2.6781885408424638e-01  -2.4916584868407596e-01  -2.3716901552602590e-01  -2.3722827672731109e-01  -2.0797137964866116e-01  -2.0232607784596357e-01  -2.1913461705948573e-01  -2.9752516530495504e-01  -1.6046674814449385e-01  -1.7329279556033150e-01  -1.7137827157329696e-01  -1.7470626593331084e-01  -2.4808860913925765e-01  -1.5981460837518160e-01  -2.7688703616375976e-01  -2.5440758065644792e-01  -2.4703166915900962e-01  -1.8384518061335545e-01  -2.2709910041091705e-01  -2.2858244275794989e-01  -1.8564332831629451e-01  -2.2504207763406911e-01  -1.5820153302484405e-01  -1.7006428898416626e-01  -1.9831970023563728e-01  -1.8127944003210500e-01  -1.9964721651406506e-01  -1.8069567959482474e-01  -1.9323128083187624e-01  -2.1875461000132645e-01  -2.4401789012057146e-01  -3.0224611656237460e-01  -1.5851956293663119e-01  -1.6427874491507913e-01  -1.6553299836216070e-01  -2.6419818813803081e-01  -2.0444130118514736e-01  -2.0748384395848063e-01  -2.0550364196034299e-01  -1.6597038207482567e-01  -2.6080115974205165e-01  -1.8635070017649794e-01  -2.6133298295665613e-01  -2.5804540377748542e-01  -1.9382479408620706e-01  -2.0701040023755457e-01  -1.9438253910408465e-01  -1.6456750344922425e-01  -1.6493201851588679e-01  -2.5232164107478672e-01  -2.7260911927088105e-01  -2.3702100815843691e-01  -1.7181003518675736e-01  -1.7926369990411395e-01  -2.0115964375423717e-01  -2.0866901092179821e-01  -2.0439301937846710e-01  -1.9834333269062673e-01  -1.9098480864351483e-01  -1.8285890350021675e-01  -1.8508696817087633e-01  -2.4535900397791072e-01  -1.5843315569374453e-01  -1.8646629508432719e-01  -1.8789049798381105e-01  -1.9478664612170635e-01  -1.6380995672501289e-01  -1.7182927203624090e-01  -1.6460424016444355e-01  -1.5843998185175284e-01  -1.8339516488856647e-01  -1.8468303168951994e-01  -2.5466479390178492e-01  -2.5359928550832839e-01  -2.1654419034252190e-01  -1.7637628718904508e-01  -1.6528691297901482e-01  -2.1354102424318031e-01  -1.6323951049949653e-01  -1.7189215217868967e-01  -2.3646923971136935e-01  -2.3188120407219148e-01  -1.7136837360069085e-01  -1.8022763580535353e-01  -2.1123376833429522e-01  -2.6585211113059670e-01  -1.9486305204697932e-01  -1.7358109449576356e-01  -1.7526102999703813e-01  -3.0596615864377946e-01  -3.0044230709637276e-01  -2.9773891551806447e-01  -2.0330538230865186e-01  -1.6367686180511454e-01  -2.0786863288693172e-01  -2.7107527004633375e-01  -1.6384819567095299e-01  -1.7296704013835304e-01  -2.2507948256274571e-01  -2.1255614438258055e-01  -1.8471091067060222e-01  -1.6149653866532118e-01  -2.1995840169095873e-01  -1.7297468779806713e-01  -1.6402993528014131e-01  -2.7324722209864244e-01  -2.2688564988881302e-01  -2.1387259085316720e-01  -1.7485022977254822e-01  -1.6359661992305050e-01  -2.0919297390378466e-01  -1.9856564005989957e-01  -2.8946014575435358e-01  -2.2116229068532731e-01  -1.5871255877500381e-01  -2.3537818526123527e-01  -2.6190232964002214e-01  -2.3702169231785392e-01  -2.0744245064894587e-01  -2.4283216835136603e-01  -2.4173769898760020e-01  -2.5445909667904532e-01  -1.7511449929770878e-01  -2.0075833134298671e-01  -3.0740392034618547e-01  -2.3732348045036980e-01  -2.8252142365426058e-01  -2.8601283825216084e-01  -2.8182214030049718e-01  -2.9189288022926452e-01  -2.9220715790921803e-01  -1.6374613644747429e-01  -1.5827206474181968e-01  -2.2995334058809283e-01  -2.2978896345174152e-01  -2.3634342176037273e-01  -2.3198053286414386e-01  -3.0790122731376746e-01  -2.0270172484072993e-01  -1.7103100077738478e-01  -2.5938955257922358e-01  -1.7887265867118166e-01  -1.7537962177499766e-01  -1.7246409196570345e-01  -1.9568139673480908e-01  -1.7531601039859315e-01  -2.5463485376920975e-01  -1.8772695591589197e-01  -2.2898454314099043e-01  -1.7500394973123412e-01  -1.7076654933042121e-01  -3.2338592345991157e-01  -3.2248132660255197e-01  -1.8447245502277607e-01  -2.3799901614010843e-01  -1.6765360873113877e-01  -3.1393844210502186e-01  -1.8710640203264040e-01  -1.6316197650289127e-01  -2.7809428120641194e-01  -2.7521172498509100e-01  -2.1339329734747015e-01  -1.8899360559776718e-01  -2.1958072081675611e-01  -2.5549365528614398e-01  -1.5949538777729630e-01  -3.0664948517761853e-01  -1.7780891882701677e-01  -1.9020305017730960e-01  -2.6141958906029378e-01  -1.8270169173227735e-01  -2.9055300199808171e-01  -2.1476875629100950e-01  -1.8350723605532465e-01  -1.9040891888446609e-01  -2.0364299741432002e-01  -1.8483154204448216e-01  -2.1122941618805413e-01  -2.1754876790576144e-01  -2.4444547640631814e-01  -2.0634925254638725e-01  -1.9536865734419867e-01  -1.6912082350832192e-01  -1.6340805174636616e-01  -1.8567977521437329e-01  -2.4453192526291412e-01  -1.6503953818366224e-01  -1.6357745986679631e-01  -2.4877806474087094e-01  -1.5829139644705717e-01  -1.6008392095350288e-01  -1.5949148942232289e-01  -1.6727487403913305e-01  -1.6228720061245355e-01  -1.6040110457983611e-01  -2.1772817307386891e-01  -1.6065214606847122e-01  -1.5853613635151700e-01  -2.0616238867102987e-01  -2.1662111963133829e-01  -1.5838367583109661e-01  -1.5849237532524896e-01  -1.5850389637072385e-01  -2.6046465636746424e-01  -2.4985925606170198e-01  -2.3921490468629916e-01  -1.5984994076022477e-01  -2.8176304821060844e-01  -2.7018501814484824e-01  -1.9555180053844948e-01  -1.9620464395760381e-01  -1.6246942927906882e-01  -3.1289925950679737e-01  -1.7811063410310066e-01  -1.5861859601907599e-01  -2.9157047685814308e-01  -2.2727190694510682e-01  -3.1346503137783571e-01  -3.0295059554365295e-01  -1.5952490291493784e-01  -1.5785283817432311e-01  -1.5549496995196843e-01  -1.5560106734151499e-01  -2.2847520301381713e-01  -1.5985911887156437e-01  -2.9236591599700917e-01  -1.5867465036619036e-01  -1.5884034213787676e-01  -1.5855386564195004e-01  -1.9922749259257724e-01  -1.8005819147544211e-01  -2.1877307266192189e-01  -1.6508089618088756e-01  -2.2823303974743864e-01  -1.6617189695875195e-01  -2.8516242483363047e-01  -2.8182606136345151e-01  -2.8958195625119937e-01  -1.7546023446075348e-01  -2.9957714906124683e-01  -2.6529056124041922e-01  -2.8955240857224818e-01  -1.9233760519934257e-01  -2.4355163120822923e-01  -2.5548332449968447e-01  -1.8727148355993853e-01  -2.2861089538177745e-01  -2.2364887674264006e-01  -2.1886786366450606e-01  -2.3918671818805415e-01  -2.8272299385485344e-01  -2.9255191401077757e-01  -1.7453282226245390e-01  -2.0152112028828492e-01  -1.9741061610828492e-01  -1.8041882729930470e-01  -2.7539918688322584e-01  -1.6412798210913804e-01  -2.2516971877855751e-01  -1.9033422092635546e-01  -2.4787657480191680e-01  -2.6481797927357587e-01  -2.2584220691159343e-01  -1.9397680406579357e-01  -2.2984989841150330e-01  -2.5740249195177850e-01  -2.5112715781941952e-01  -1.9776998526616787e-01  -1.7194381517593524e-01  -2.6761053282275288e-01  -1.8152717145192840e-01  -1.7752885227328949e-01  -2.2952498523660023e-01  -2.1369159912524030e-01  -2.6976816238319240e-01  -2.1019045269529327e-01  -2.8361992211925180e-01  -1.7532707557449739e-01  -2.1496169473800567e-01  -2.1205405376491940e-01  -1.8452452034793845e-01  -1.9717721691849885e-01  -1.9504163056578924e-01  -1.8802236104969036e-01  -1.8889377456682641e-01  -1.8304666976049741e-01  -2.3405962952805179e-01  -1.9004269855157777e-01  -2.0788664260706405e-01  -2.3984369368504529e-01  -2.0209511875850819e-01  -1.9920174107905395e-01  -1.6935246589796898e-01  -2.2723749361277573e-01  -2.0430437685476549e-01  -2.0142885311073325e-01  -1.8829267971081784e-01  -1.9403033222325744e-01  -2.2135132098064589e-01  -2.1915583495958035e-01  -2.1187954848265386e-01  -2.5049244174471219e-01  -1.8079194479103392e-01  -1.7586673542349501e-01  -1.7501526126897685e-01  -1.7898066193052950e-01  -1.8230517387405062e-01  -1.7590840795970714e-01  -1.7279128378207537e-01  -2.1996284236554453e-01  -2.2930495218663879e-01  -1.7583322819571215e-01  -1.6486104576109925e-01  -1.7972871736471324e-01  -2.1238733093624482e-01  -2.3189667315474446e-01  -2.4743734426103103e-01  -2.1850883429756665e-01  -1.9193288092025673e-01  -2.7016065456489247e-01  -2.3784839064941585e-01  -1.7072852771459893e-01  -2.7465421682526259e-01  -1.9939543278575386e-01  -1.819377