<?xml version="1.0"?>
<VTKFile type="UnstructuredGrid"  version="0.1"  >
<UnstructuredGrid>
<Piece  NumberOfPoints="6486" NumberOfCells="12696">
<Points>
<DataArray  type="Float64"  NumberOfComponents="3"  format="ascii">0 2.5 0  0 0 0  2.5 0 0  2.5 2.5 0  1.25 0 0  2.5 1.25 0  1.25 2.5 0  0 1.25 0  1.25 1.25 0  0 0.625 0  0.625 0 0  0.625 2.5 0  0 1.875 0  2.5 0.625 0  1.875 0 0  2.5 1.875 0  1.875 2.5 0  1.770833333333333 0.7291666666666666 0  0.7291666666666666 1.770833333333333 0  0.9375 0.625 0  1.875 1.5625 0  0.642361111111111 1.163194444444444 0  1.341594827586207 1.883979885057471 0  0.46875 0.46875 0  2.03125 2.03125 0  0.3626104797979798 1.513178661616162 0  1.381740196078431 0.4564950980392157 0  0.9375 2.172619047619047 0  2.172619047619047 0.9375 0  2.096354166666667 0.4036458333333332 0  0.4036458333333333 2.096354166666667 0  1.684027777777778 1.163194444444444 0  0.3418803418803419 0.8693910256410255 0  1.642742622813391 2.162164207604464 0  1.275619849389031 0.8465650753054845 0  0.9136284722222221 1.434461805555556 0  1.732437511238546 0.3406962303960658 0  0.9714402568595876 1.029779313093998 0  1.52281746031746 1.485615079365079 0  2.1875 1.71875 0  1.06819722569879 0.2997236128493951 0  2.136114211309524 1.303478422619048 0  0.3125 0 0  0 0.3125 0  2.5 2.1875 0  2.1875 2.5 0  0.3200021620376328 1.192323085056694 0  0.6738456129277992 0.8304377375553881 0  1.757891808928991 1.861952730357003 0  1.5625 0 0  0.9375 0 0  0.3125 2.5 0  2.1875 0 0  2.5 0.9375 0  0 0.9375 0  0 1.5625 0  0.9375 2.5 0  2.5 0.3125 0  0 2.1875 0  1.5625 2.5 0  2.5 1.5625 0  0.7448220909826522 0.3003573636608841 0  1.027298850574712 1.871151477832512 0  1.331260495098891 2.197262878816185 0  1.207917681892289 1.582765010956622 0  0.4339993447432606 1.801186844743261 0  0.6337298768939392 1.443093039772727 0  2.049851190476191 0.6826636904761904 0  0.6584821428571428 2.219122023809524 0  1.89575676467455 0.9798457973793544 0  1.437570562095628 1.059380588255917 0  1.502090052505845 0.6987070896496241 0  0.2040860661083546 1.705323965099331 0  0.2083333333333333 0.46875 0  0.5070952039991439 0.2211150679997147 0  0.6916302856529919 0.5813591430410241 0  2.265625 1.953125 0  2.2265625 2.2265625 0  1.886424081252096 2.243391360417365 0  1.40625 0.202164758520858 0  0.2269345238095238 0.2269345238095238 0  1.152730869673694 0.5225850378741401 0  1.885631899587912 1.312095130148776 0  1.614808884009367 0.9049784971014416 0  1.890095442220658 0.5126535558463003 0  2.323168682795699 0.46875 0  2.268811725689575 0.2304742875213018 0  0.6002389442105756 1.967426444210576 0  0.1768313172043011 2.03125 0  0.2311882743104251 2.269525712478698 0  2.03125 0.176831317204301 0  2.280262553344767 0.6954945504579233 0  1.979219539285994 1.809922269642997 0  2.336309523809524 1.09375 0  1.09375 2.336309523809524 0  0.9314042474388009 1.662973812215543 0  0.1634067999087722 1.40625 0  2.337090640094896 1.40625 0  1.141616997467638 2.069311773587991 0  0.46875 2.338939559681489 0  1.542440307908715 1.734944797244472 0  1.556713687786879 1.956977865354753 0  0.8264238995344066 1.975424467820646 0  1.466326331454725 1.275271369760862 0  1.655675324257095 0.5444159974393489 0  0.3385416666666666 0.6479255698005697 0  0 0.78125 0  0.5236073939200119 0.984090461540625 0  2.091665741047893 1.519793517904215 0  1.71875 2.5 0  0.5356538886262603 1.623137930505009 0  0 1.09375 0  0.1932884281517095 1.015625 0  0.8569313582417669 1.2198915584249 0  0.8876981284879677 0.8329884081524883 0  1.115618488474214 0.7219586973356271 0  1.186950366204949 1.043465130075318 0  2.057459118787237 1.110823087309335 0  1.830651283878689 2.049810069572418 0  1.689107969301489 1.367247437031697 0  0.4921048768039656 1.298643370653124 0  0.8213975694444444 2.336309523809524 0  2.03125 2.5 0  1.049729400480002 1.283723261332814 0  1.308101375801673 0.6489479469700392 0  2.5 2.34375 0  0.4968777175037714 0.7562964879736076 0  1.40625 2.5 0  1.501347663534097 2.307027627307738 0  1.602813712048603 0.1926218191360736 0  0.8393082906308107 0.463778306132633 0  1.682663349152719 1.598471865581041 0  0.7774174680851571 1.560004941327907 0  1.554204170364662 0.3898593897892066 0  1.842184459051087 0.186443880058197 0  1.358107417651776 1.696381759610015 0  1.18859291992392 1.77598670078022 0  0.1875331222687418 0.7609599743339348 0  1.339536743965101 1.422080365801479 0  0.7788179348750389 0.9955343414928611 0  0.9062978492805438 0.1919636509126373 0  1.256007360640958 0.3160320559396114 0  1.09375 0 0  1.174986727221844 0.1594990293443933 0  2.34375 1.796875 0  2.318026474511116 1.589177949022232 0  2.34375 2.5 0  1.672742954892153 2.332882724550692 0  0.2683637361947215 1.874801596909639 0  2.174770749820102 0.5581009131310781 0  1.443279522965991 0.8870068372898454 0  0.3385416666666667 0.3571428571428572 0  0.78125 0 0  2.060421048269335 2.314363248763811 0  1.088078737088509 0.8967352118723447 0  1.087825368444708 1.454931510884769 0  2.018308232129541 0.8548495425854904 0  1.943987311736842 0.3246298523011434 0  1.71875 0 0  1.85337849796276 1.144833312386208 0  2.3486328125 2.1044921875 0  1.407588788651747 2.042968789119587 0  2.336309523809524 0.865366648092144 0  2.34375 0 0  2.5 0.15625 0  0.15625 2.5 0  0 2.34375 0  0.1638044648294291 1.242263417405867 0  0.356216654757926 1.032569427322806 0  0.3188217956111817 1.355736727000647 0  0.5924956460852111 0.36112522004736 0  0.6594216488965849 0.1603472116132387 0  1.841804599497131 1.72214349266521 0  0.15625 0 0  0 0.15625 0  2.115898634821499 1.894570904464496 0  0.7821877980253907 0.7129993435924866 0  1.003820447087786 0.4516053462784233 0  0.477562948779147 1.138333049293613 0  0.719493678605015 1.305655360135975 0  0.9772457618587566 2.020350128938537 0  0.8764738248887107 1.826219722709673 0  1.254787875123819 2.339010653832026 0  2.343597354852534 1.249982759769001 0  0.78125 2.5 0  0.46875 2.5 0  2.5 1.40625 0  1.09375 2.5 0  2.5 0.78125 0  2.5 1.09375 0  2.03125 0 0  2.5 0.46875 0  1.40625 0 0  0.46875 0 0  0 0.46875 0  0 1.40625 0  0 1.71875 0  0 2.03125 0  2.5 1.71875 0  2.5 2.03125 0  2.005424054645407 1.653223486966518 0  0.1538730573856537 1.559850281736677 0  2.33984375 2.33984375 0  1.166539506212474 1.922878979538754 0  0.3914885633949916 1.65887232812171 0  0.5795503163042564 1.766243562569382 0  0.399533125920212 1.946786875081388 0  0.7866324979014098 2.127719094551316 0  0.3654683023546834 0.1495701132219454 0  0.1527388747131078 0.6116379440619215 0  2.013737577140188 1.391056634712135 0  1.17635437372994 2.213329084238133 0  1.737118141866284 1.010577140843115 0  2.200707118087222 1.164723314085963 0  1.697018908736685 1.993548551451517 0  0.5387621649009668 0.6070503962352419 0  2.032805785855952 0.5330427622570983 0  1.082699501358059 1.667818725183932 0  1.503819781540653 0.5468420196858188 0  2.015409142866072 2.175941657590429 0  1.752057611265444 0.869642097111018 0  0.612251684107783 2.356045720700959 0  1.902817102342857 0.6607642211999982 0  2.159616561739693 0.7867739969338844 0  0.5120038350106624 2.197302352398502 0  1.888200216011548 1.919501662489862 0  1.495909909726654 2.16028358757309 0  0.489139876703609 1.443203008943564 0  0.8819175670410521 0.3301172743913011 0  1.882591144370812 0.8155965192707721 0  1.133979796994841 1.172526771862882 0  2.206217447916667 2.084147135416667 0  2.20361328125 2.36279296875 0  1.395746985657004 1.556054166359645 0  1.704383111516207 1.734750450338683 0  0.9575737847222222 2.36274223823052 0  1.035150984253136 0.1302833343179028 0  1.383966125325753 0.7651479963479179 0  1.64003252158672 0.6824316405528895 0  2.22550785055421 1.487078576356817 0  1.760964431499756 1.48495222505201 0  1.276460980673788 2.004207003584658 0  0.1341477688427096 1.828777507920502 0  1.542261434180652 1.155296658359034 0  1.334627911613854 0.9696897472490321 0  1.30794231473696 1.119420615785191 0  0.7028260459857245 0.4438906910721139 0  1.625757433094055 1.84268057552138 0  0.9818707849053143 1.165603626132254 0  2.0086489901463 1.243134585689553 0  1.934584460420609 2.374094051915812 0  1.798434376789567 2.38671361912528 0  1.206314791201715 1.382064292497919 0  0.6333752893366955 0.7023738550008095 0  0.7796219811205605 1.42573253164258 0  1.564399711917382 1.026040828857629 0  0.3385416666666666 0.4889012896825397 0  0.1041666666666667 0.390625 0  0.989112246382566 1.543537365516289 0  2.025724425454636 0.9846960595520872 0  0.6602885475034063 2.086117390485779 0  1.607130551925032 1.267198646640915 0  0.1317864544877056 0.8896173683400176 0  1.755387840017567 2.230364320056445 0  1.301540702984401 0.1216289692748247 0  1.433170657577442 0.3331052752740999 0  1.500459610550388 0.113513924782439 0  0.6494291520606965 1.029586599619295 0  1.010146149868299 0.794897284196169 0  0.3700844198238017 2.235390157870766 0  0.3360891767780704 2.36656279435396 0  1.876856241037701 1.437150669863757 0  1.778674102957329 1.245979347269706 0  0.5472829890977179 0.1005517127039925 0  0.4669074189005698 0.3416784232954367 0  1.472765289289269 1.850899166481903 0  1.555853593327178 1.608452097912802 0  0.6708955559113426 1.646561631116984 0  0.8164699620322933 0.5924479455478063 0  0.3167738989468366 1.758696809749795 0  0.2788007305565096 1.605499483471246 0  0.7821720982350511 0.181524936294752 0  1.376812251214195 2.313340247908297 0  1.785652202614777 0.5962261755537186 0  1.761467296310972 0.4679567244718574 0  2.2265625 1.8359375 0  2.3828125 1.9140625 0  0.5279531607054191 2.071552361614785 0  2.397573269551114 0.234375 0  2.383578172599618 0.3589298466020009 0  0.1024267304488855 2.265625 0  0.1164218274003825 2.141070153397999 0  0.2696857594953064 2.135405441512016 0  2.164961300137334 0.1375322943529536 0  2.137757548369486 0.2724194778647587 0  2.238873711826398 0.3626419179496562 0  0.1001414910226386 0.234375 0  0.2176339285714286 0.3478422619047619 0  0.2503620791333544 0.1061694061057066 0  2.336445461915368 0.1250451055247424 0  0.2154004640409726 2.3918124
[...]
<PointData  Scalars="f_49-0"> 
<DataArray  type="Float64"  Name="f_49-0"  format="ascii">-9.7545115241016032e-05  -5.7825570030337232e-03  1.0100670049846110e-06  1.8051523848787524e-04  -2.0858277032295338e-03  -3.5583211595205429e-06  -1.4561874338758305e-04  -3.2373833182068254e-03  -6.4656699827132357e-04  -5.0336295453316058e-03  -3.9863841095983954e-03  -1.2447358348110078e-04  -1.3065145979591697e-03  1.4725446164018413e-06  -3.3865311305628207e-04  7.8463490838879968e-05  -4.4449912060537820e-05  -7.8700782258698903e-04  -1.8057809083844882e-03  -2.6180804008055832e-03  5.2879909444801388e-05  -3.4563051629566020e-03  -1.3242080751988908e-03  -1.6676993367527651e-03  8.1872332741940641e-04  -2.5331979874063317e-03  -1.8623958007491035e-03  -6.9404117632386074e-04  -1.1046908871868805e-04  -1.0248933704341876e-04  -7.8853745167325388e-04  -9.3325618018689908e-04  -4.3088415850618929e-03  -4.5126568070036837e-04  -1.9882856891498047e-03  -2.6757148910619903e-03  -6.7461736622224694e-04  -1.3182688755182825e-03  -4.7331023459877153e-05  1.5140398436878742e-04  -2.7287233020227742e-03  -1.7076196512744930e-04  -4.7479006669660668e-03  -5.7870376972643618e-03  2.5956100143128451e-04  1.9326400906810348e-04  -3.3869017602809175e-03  -2.6543247177905015e-03  4.2568183442747798e-04  -1.0390138847146489e-03  -3.0272372340550803e-03  -9.4814580260673363e-05  -3.2463181063858552e-05  3.9235762023035511e-07  -4.0267955676042688e-03  -2.3309839718735604e-03  -1.3361932520141806e-04  1.4990585367983153e-06  -5.1074425831852861e-04  -1.3048049287237045e-04  1.9747387771504160e-06  -3.6301362138270506e-03  -1.4865818238977357e-03  -5.9264082180175931e-04  -1.7605103919056317e-03  -1.7170281974429268e-03  -2.7221435818608340e-03  -1.7860377164001152e-04  -5.1853218161054511e-04  -5.2586202760313233e-04  -1.3951810638777968e-03  -1.5271845351433927e-03  -1.9455607483313522e-03  -5.1923046773802734e-03  -4.1218436934862450e-03  -1.9027477057854056e-03  4.3232643025545856e-04  6.2225161685449748e-04  1.4453236095540240e-04  -1.6269732565186831e-03  -6.3882107876638320e-04  -2.5366757079622253e-03  -4.8351521047549029e-04  -1.2482499041196419e-03  -3.8366667277713089e-04  -9.0321595405949626e-06  -1.9185979538632173e-05  -1.2351817704297204e-03  -8.8586508163005927e-04  -3.5793618596814084e-04  -1.5230995450064570e-04  -2.4194658363916039e-05  6.4110667804694911e-04  -2.6958965690713056e-05  -3.4644231968984168e-04  -2.0763663503382030e-03  -2.8323935841065681e-03  -3.0953436926819269e-05  -9.3800578375635691e-04  -2.7513785954886617e-04  -3.5606746627067756e-04  -6.7649781838109658e-04  -1.2382322119919536e-03  -5.5606423259670686e-04  -1.0671946301121014e-03  -4.7033612791117872e-03  -4.5382150803793854e-03  -3.9086261210841368e-03  -1.0336501009309846e-04  -1.1475148881234261e-04  -2.2105712050229415e-03  -3.6179134565392690e-03  -3.8625872836921546e-03  -2.8910752640542449e-03  -1.3349554547254731e-03  -2.3991546232673875e-03  -9.8635178256670859e-04  -2.4114368590525526e-04  3.5368634712303228e-04  -4.3881234160918388e-04  -3.1040364741621884e-03  -3.2715630054270747e-04  9.6492686821701953e-05  -1.8245839956118933e-03  -2.0861109662984986e-03  2.5867890956037855e-04  -4.0056323334524717e-03  -1.3996077741689042e-04  -3.6107919679012580e-04  -9.8185440419636442e-04  -3.2386288602982908e-03  2.6231877173084529e-04  -2.3789468710000926e-03  -1.2873368488047134e-03  -3.8803948063360010e-04  -1.2738967983688715e-03  -1.7194820491150992e-03  -4.5920629888385736e-03  -5.4647712959419125e-04  -2.7226702324282363e-03  -3.1593187345089445e-03  -2.1949024912086596e-03  -2.5752779374499934e-03  -2.4419256622881993e-03  1.2295477355124339e-04  -5.3607792105825555e-06  2.3972915759744667e-04  -2.6368690525941318e-04  -1.4341795616544177e-03  -5.5074774855943414e-05  -1.6656030605607447e-03  -1.8067671869680926e-03  -3.4645839976430275e-03  3.7234463152438984e-04  -1.4690852959393004e-03  -2.1062610363885128e-03  -2.8738453306679693e-04  -2.5983139358931568e-04  -6.6319332796297337e-04  -6.1975535894271024e-04  4.6221474691444882e-04  -9.1934901255153985e-04  -1.5211032155149290e-05  -7.8649660307771086e-06  1.3874659533123414e-06  -9.2758828733178228e-05  -2.0038520051901044e-04  -3.2328290629785885e-03  -3.8791247751231305e-03  -2.9529767636365719e-03  -3.4076538212319532e-03  -3.8679012733270298e-03  5.4389770691327260e-04  -5.2495696288423913e-03  -6.3893509416513535e-03  6.2468029734322889e-04  -1.5521787104333848e-03  -2.9165149936019167e-03  -3.5963297999872319e-03  -3.0899394503886919e-03  -1.1021820809332655e-03  -1.6378005402749411e-03  -3.4721716282644176e-04  -3.0736160813853436e-05  -1.2605432112835328e-04  -9.7749282603044958e-05  -3.3368775293348553e-06  -1.3963963916369845e-04  8.0338950650800553e-07  -1.6360499461122198e-06  -1.5118497577661186e-04  1.4899422592894727e-06  -1.4142440569033714e-03  -4.3844900884280552e-03  -5.4172961264295511e-03  -2.8339823986903369e-03  -1.8815820528476962e-03  -9.1789846440370939e-04  2.3435092907030087e-05  1.7137889571699206e-04  1.7746907639039133e-04  -2.3665380287403283e-03  4.2289737847595868e-04  -1.3513182462536696e-03  -2.1749796809493282e-03  -1.8082283639874834e-03  -1.2387687095720833e-03  -7.9934136583536999e-04  -4.2444221315188109e-03  -5.0099544684085876e-03  -2.7505238926302911e-04  -6.0428960872258193e-04  -8.9791685378702720e-04  -9.6716705280713904e-05  -1.0794834450085085e-04  -2.1325112807736002e-03  -1.8344729441539481e-04  -2.0474569454472101e-03  -1.4954946058776601e-03  5.8444914631665369e-04  -8.6653162925787858e-04  -2.6304152059159592e-04  -4.2775085576339766e-04  -9.1787058725465158e-05  -5.4798735587899207e-04  7.1398166484517374e-04  -6.2424833931521676e-04  -2.7173604437536786e-03  -3.2339950970015903e-03  -4.9453134392643810e-04  -9.3874270765389057e-04  7.0355013487818072e-04  4.0461513969231516e-04  -6.1071348263155335e-04  3.7099545465023727e-04  -2.8452522266384596e-04  -2.8140544656006729e-03  -1.8881392470989334e-03  -1.1198416127846758e-03  -7.0905880331640348e-05  -8.3651648128867025e-05  -1.1068553527628100e-03  -1.5917623631639879e-03  -1.0759780485297399e-03  -1.6508970821586140e-03  -8.8462119001769628e-04  -3.1205413769223168e-03  -1.6644101919405355e-04  -1.9224218357183052e-03  -3.4145517098930095e-04  7.9019303415691264e-05  -1.2252450538038481e-04  -1.2046726556772692e-03  -2.0483672005582945e-03  -2.7771514609175687e-03  -1.3366639389095843e-03  -3.7002303371811342e-03  -5.6027173760388026e-03  -2.3837518307947016e-03  -2.6374068720460783e-04  -8.6344168061653649e-04  -7.3707114290944074e-04  -4.2384556808759376e-03  -2.0678488652582815e-04  -1.9392195869904695e-03  -1.6550148892604292e-03  -1.2515992219690316e-03  -3.5984871057342764e-03  -1.7891801665920555e-03  -4.4021415956835134e-04  -2.1751460825430630e-04  -2.9377909602475312e-04  -7.0089870400673728e-04  -4.1471803704244258e-03  -2.4868222819088427e-03  -9.2059082266196220e-04  4.0962624478453207e-05  -2.1080358718969321e-03  -2.4079111972488904e-03  -1.8189229336299923e-03  -2.2934330603451465e-03  -3.5365180972907586e-03  -3.5940484612459201e-04  -7.1671099928055236e-04  -6.7214060922491628e-04  3.1702263963841269e-04  1.9706319266926301e-04  -8.9653998235098497e-04  -6.8624099805299944e-07  -3.3834964139718198e-06  -3.5403963614078030e-04  -6.5706439313365211e-04  -6.4797150319088643e-04  -5.6671807543102802e-05  -7.3102251084075222e-05  -3.2599095325847229e-05  -5.4495772245427999e-03  -4.1630576793690440e-03  -3.9644924306733408e-03  -5.1546878480231468e-06  -1.8468843621067784e-04  -5.9145090882955825e-04  4.6794547171256413e-04  -7.0012975956240664e-04  -2.6724015360367562e-03  -2.4613952573747820e-03  -2.1337634446098419e-03  -1.0907094914405764e-03  -2.2847133564273319e-05  -3.2091387686301082e-03  -1.1540935784435165e-03  -2.5743572238296652e-04  -5.0266547562449461e-06  -5.3626382482827412e-06  4.2683917104075370e-04  -2.0411925902000532e-03  -1.4528925260209238e-03  -1.4383658103976885e-03  -1.4232635157235664e-03  -1.0864790516002369e-05  -3.0721327521537032e-04  -4.4942901825489434e-04  -4.1788403932165336e-03  -2.0144798674143912e-03  -1.7778663756616881e-03  -7.4477927775921395e-05  -3.3041627400443078e-03  -8.3206346226573510e-05  -7.7057964610783214e-04  -3.4938997941059979e-03  -1.0476627347377927e-05  -4.7573010987737637e-03  -3.2086785510339021e-03  3.1787493538104860e-04  8.0537570896473685e-04  -2.3474027439467586e-04  -2.2486249627502671e-04  -2.6796161278035062e-03  -3.0471189386544724e-03  -7.6959353159197988e-06  -7.2725343490171235e-05  -2.3520952722605689e-03  -8.6892582849789582e-04  -1.0926923757294132e-03  4.2287480638399718e-04  -4.9386212807039866e-04  1.1497854533024960e-05  -5.5331898809384071e-04  -8.9257686353755262e-04  -2.1350296944800659e-04  -2.6670274710897152e-03  -4.6129010221663035e-03  -3.4003243733635117e-03  -4.9613603333843849e-03  -9.8927885774417680e-04  -2.1121072731980187e-03  -3.4182714351645807e-03  -1.2323735551069426e-05  -1.0181261429585294e-05  -2.1734533760549442e-04  -1.5879991274628941e-04  2.7615246743366236e-04  -8.0368752406465962e-05  -1.5701776046397444e-04  -1.8145050355362609e-03  2.4106088887917887e-04  -1.3041646046764110e-03  -1.0453096896428146e-04  -9.6854953212316484e-04  -1.3596392807650813e-03  -4.6009099240042363e-04  -2.6367499523319606e-03  -2.8027483853019738e-03  7.2380466117490160e-04  -5.8495322348111397e-04  -1.0919466406950832e-03  -1.5924976501302686e-03  -1.9838468895133949e-04  -3.6540667448947068e-03  -1.8153371669213188e-03  -1.5716200835559897e-03  -1.1923538691079479e-03  -3.3423325355244691e-04  -2.9328666482495353e-03  -1.7641257969085015e-03  -2.1390863345477481e-03  -1.2205323435754251e-03  -8.2233480185877998e-04  -4.1498422911218457e-05  -2.4614286341045448e-03  -2.1754393694151490e-03  -3.9041944828629208e-03  -5.3757915673068426e-04  -4.1969699608207910e-03  -1.5892318378862456e-03  6.9377057210686299e-04  -2.1186203395309194e-04  -9.4575566117635396e-04  6.1082843442247491e-05  -2.4000805273301771e-03  -5.3132653834473435e-03  -3.8982561091471736e-03  -4.0986946567607229e-04  -1.7148055018398692e-04  -1.1023345863244859e-03  -1.8512047698803361e-04  -2.4389865211728898e-04  -2.3771505625777073e-03  -3.8377175806564856e-03  -1.5164396595113622e-06  -2.3987527082911398e-03  -2.2025105678767144e-03  -2.0828959675895761e-03  -4.4768765697322112e-05  -2.0172849556944405e-03  -2.4086166344859175e-03  -4.7237193895070351e-04  -3.8459938007198917e-03  -3.6825570476828767e-03  -1.0311802827453819e-04  -1.0644870701914933e-03  -1.0872903754795299e-03  6.8159634769324900e-04  -4.4255493724036497e-04  -2.9294841475566201e-03  -3.3037730983453890e-03  -1.5875811560297230e-03  4.1753146268578201e-04  3.4553509648764844e-04  6.7478983472683580e-04  -3.6885164452087490e-03  -1.6526678441436651e-03  -2.0774501750396752e-04  -3.7661775252450326e-04  -1.4454544158393941e-04  -2.1546162378535566e-03  -1.1485989089958749e-03  -1.5932484980006058e-03  -7.8754873949760790e-04  -3.6179235956070189e-03  -2.1896988666548130e-05  -1.8423558083618000e-03  -1.0582963650668468e-03  -4.8704152723890706e-04  3.1567616606584085e-04  -2.8725156140968463e-03  1.7291713060101232e-04  -1.7810416217728677e-03  -3.0116145116633121e-03  -1.7269693073203554e-05  -1.8474153651574397e-03  -3.6382991493418269e-03  -5.0063064318100125e-04  3.4284954276441533e-04  -5.0977406821376022e-05  -1.2987928871669940e-04  -2.4039824552998645e-03  -4.4593849942173042e-03  -1.7239036227809355e-03  -4.4993378943884573e-03  -9.6077568448988088e-04  -1.2945965573134333e-03  -3.1589574633361203e-03  -7.4250514698936943e-05  -1.1758863078429459e-04  -2.8994376401841053e-03  -4.4147466901334713e-04  -4.0594419447965331e-03  -1.2736318321273040e-03  -4.8634778415522694e-03  -2.3822320530643846e-04  -3.4617395139007129e-03  -2.9730445251431158e-03  -2.4553284488097291e-03  -1.9464070241768127e-03  -1.9145016851459214e-03  -1.5276021356622886e-03  -1.4689916767667290e-03  -1.3689283173089295e-03  -4.3587571078687187e-03  -9.8491894215910374e-05  2.8353828040860064e-04  5.3351654145007623e-04  -3.7160104990179829e-04  -3.4143625857879761e-03  -1.2587588447011687e-04  -2.8098610333463780e-03  -2.6709213168274737e-03  -3.2733470572292736e-03  -7.1347319623531831e-04  -2.5277894100072520e-03  -1.5690910720869823e-03  1.0147380355397883e-04  -1.4544746923031138e-03  6.7644606195503262e-07  -2.7243098891843031e-05  -4.8697364460049107e-04  8.4351245536894168e-05  -1.3169217955696108e-03  8.0298331155122401e-04  -2.4829705473931375e-04  -1.1390468635542280e-03  -7.7481584482863911e-04  -4.5057774664547419e-03  1.6187997200886110e-06  -1.4932192917974118e-06  -2.2397510179006161e-04  -3.0294485300190457e-03  -1.5695922489649679e-03  -1.6811110502263681e-03  -7.3532015802078518e-04  1.8011074363537098e-04  -2.9193823242334989e-03  -8.0831763843765942e-04  -2.8914454167347572e-03  -3.8415121704177468e-03  -3.8250143612665572e-04  -1.6243100771812071e-03  -1.1398593509814427e-03  -1.6283502493139241e-04  -1.8691932553706856e-04  -2.6010830818652920e-03  -3.3948588675834462e-03  -6.4348724072042058e-04  -2.1836577444675534e-05  -5.8991172004685378e-04  -1.4834485300436963e-03  -8.2626439223020117e-04  -6.9339112155607176e-04  2.8526243181833754e-04  -9.1075808938079889e-04  3.8478433040904587e-04  -1.1562746572530721e-04  -2.2090612823195870e-03  1.1547024521388799e-06  -2.0029736168011649e-04  -1.8835062547331626e-04  -3.7755559398790326e-04  9.7953140842098186e-05  2.7381249185587494e-04  4.1483885807796711e-05  1.0657528617031610e-06  -7.3829964827344695e-04  -8.5675836763870130e-05  -3.6316529123313372e-03  -3.6515641101632400e-03  -1.1550873929529110e-03  -3.6278450042201183e-04  -1.6255732643335801e-04  -7.7728327817866015e-04  3.6091046940664548e-04  6.1369630186712575e-04  -1.8208917544383740e-03  -1.5961050241830189e-03  -1.0971780403532060e-05  -5.2990642554586853e-04  -1.8517252244755293e-03  -3.1478372227530158e-03  4.3500989947562331e-04  -3.9828295912755165e-04  -2.2852060082068790e-05  -1.4119676555846654e-03  -3.8262082660892320e-03  -1.5804665517131760e-03  -1.5356968600746164e-03  -3.2131578529525152e-07  1.4946845236088103e-04  -4.2345611098621961e-03  -1.7220620793017112e-06  -2.6501743257213739e-04  -1.2988381120589425e-03  -9.3265765734019642e-04  -7.3288875759926566e-04  3.4608074313234339e-04  -1.7455504022956630e-04  -9.7114781521441995e-05  2.9106656380713301e-04  -4.4316959655742588e-03  -2.4560829790746383e-03  -1.6055332021038319e-03  -6.5447292009161736e-05  -3.6581831479488246e-06  -1.7680860683694864e-03  -3.2964225936442046e-05  -4.0567801070490513e-03  -1.3227092453431217e-03  1.1823422569145816e-04  -6.3187711944099213e-04  -3.9870099930171309e-03  -2.9615367807562403e-03  2.3868928106837056e-05  -3.1288769533347940e-03  -1.2208522252453681e-03  -2.7078294534172652e-03  -6.9746317449627491e-05  -5.2745030734315153e-04  -2.2967921378830437e-03  -2.9459146993717025e-03  -3.5767858278827553e-03  -3.9869398694106304e-03  -3.7599669195934127e-03  -2.2030238347069057e-03  -3.6606927670808213e-03  -8.5095812175692525e-06  -8.3602151780552022e-07  -1.0978711177197541e-03  -2.4208474915342658e-03  -1.3665200811385414e-03  -2.7402594258584337e-03  -5.5497563847328865e-03  5.2541803499517358e-04  -4.3663492524273344e-05  -2.8783284603351223e-03  5.1204262638376483e-04  -2.5738303638712674e-05  5.5943791775104679e-04  -1.1560222093362825e-03  5.6777021004671829e-04  -1.9416973381560134e-03  5.6917091442273797e-04  -1.6861349145839304e-03  -4.5465236602693928e-04  -3.3344793921244041e-04  -5.3475593463247865e-03  -6.4287973943366484e-03  7.9790792369151709e-04  -1.7888417766336493e-03  5.1801147259797819e-04  -4.2890916948314306e-04  -6.5902251381033444e-04  1.2350229315414276e-08  -1.5857004244401590e-03  -1.7452846269332353e-03  -1.0411515831319530e-03  -5.7400073620573521e-06  -2.2231230368456524e-03  -2.7410705797637127e-03  8.8430591653935316e-06  -4.7226565291188681e-03  -2.6997904181946352e-05  -1.4945934267422302e-04  -2.9247992944575439e-03  -1.4652806325839938e-04  -4.5093531715168821e-03  -2.0194558705405436e-03  -7.2329983441028116e-04  -1.0273352854967036e-03  -1.5465928802500806e-03  6.8753587912940162e-04  -6.6449794070124715e-04  8.1515702711597551e-05  -2.1803553265457194e-03  -1.3231478515729567e-03  -2.3655361033272544e-04  -3.1045125518209628e-05  -1.2406837011077608e-05  -6.6539523089466281e-04  -3.2462622356058267e-03  -2.1146828710051876e-04  -2.1595186993825434e-06  -2.2755015726621218e-03  2.2113871899751998e-04  -1.2866153811148486e-04  1.5748783892456341e-04  -1.4677931874815554e-04  -9.7992684026801936e-05  -1.3667094122010728e-04  -2.1074897879749571e-03  -1.2811488019875630e-04  9.4691278196235347e-06  -4.4892695941533298e-04  -8.2961712582964179e-04  -2.4478024758391012e-06  -3.7669057289277182e-06  -1.8256237121664182e-06  -3.8029563633078284e-03  -3.4153796480687840e-03  -3.0414029986885970e-03  -1.4089872583448334e-04  -4.8443157876456198e-03  -3.2362050391949188e-03  -2.3691252014865845e-04  -1.1274394996325960e-03  -9.0654666318019399e-05  -5.0351684602235125e-03  -3.0990586239351350e-04  1.6172077825038326e-06  -4.2179895704033982e-03  -1.2635500629306080e-03  -6.0811606270534850e-03  -5.6138433866761272e-03  -8.2541203890459767e-05  2.6999181517361602e-04  2.3117030318484707e-04  2.0919715517789928e-04  -2.5362417959469384e-03  -1.2762778815590458e-04  -5.2055172065894224e-03  4.3840274604987350e-05  2.2137301661829013e-04  1.4152849901813968e-06  -4.7463735241831721e-04  -6.1078063199861360e-04  -2.1997778353619948e-03  -1.9066660045118398e-04  -1.6017248500343332e-03  -2.2983830782962369e-04  -1.6368666541814096e-03  -3.2055885435755744e-03  -1.9821070085488585e-03  1.5936595580819593e-04  -4.4304153947043361e-03  -2.0680863166513699e-03  -5.0799443219232505e-03  -1.0139380409122070e-03  -3.1161381622695889e-03  -2.7225613589311921e-03  -9.0633376789599315e-04  -2.6665082295564135e-03  -2.3607642250670123e-03  -2.2139596412913869e-03  -3.0236835372145581e-03  -4.8093639244436411e-03  -5.1747403576521090e-03  -6.4308449156889194e-05  -5.8519190078776273e-04  -1.2845682444370017e-03  -1.1895894398940704e-04  -2.9086551236454402e-03  -1.1602858972713530e-05  -2.4893575857802427e-03  -9.9366974707845853e-04  -1.3502116123116307e-03  -4.0970748386341058e-03  -4.4142722180049912e-04  -1.1735040133188804e-03  -1.6607851476051283e-03  -3.2766720512269081e-03  -2.4473793571116649e-03  -3.1334095165475284e-04  -3.3297133015924355e-05  -3.9827361577004011e-03  -1.1299221462691744e-04  -5.0137706781037082e-05  -2.6434723731791226e-03  -9.8877719713217249e-04  -2.2203105473356730e-03  -6.1008355785466728e-04  -2.3261503304290196e-03  1.5355973518754767e-05  -2.0820781172289243e-03  -1.8995960436003429e-03  -5.8816362123497226e-04  -3.7588377372414718e-04  -3.8325609472754000e-04  -1.8762068801108064e-04  -2.6715244904728166e-04  -7.1539355851247546e-04  -2.8353352832385403e-03  -9.6498980131426513e-04  -1.7993596645174221e-03  -1.9936605010661165e-03  -1.4935410081662638e-03  -1.3564844820822140e-03  -3.0401426191446155e-04  -1.4468915730651913e-03  -6.4344969329613354e-04  -4.7123109388705375e-04  -8.4867522065411414e-04  -1.1448923792339071e-03  -2.3400599290094681e-03  -2.2404420539846506e-03  -1.9529945728033195e-03  -1.1326227021142322e-03  -5.6458027775470862e-05  -4.9480725748448457e-04  -4.5720316588863914e-04  -5.2470778812496852e-04  -5.7316619624069932e-04  -4.1872280099919374e-04  -3.2532303224245114e-04  -9.9976741221229854e-05  -1.5246209811766982e-03  -4.0125575139885410e-05  -4.5675081462688055e-06  -1.0983472129112744e-04  -1.9296512758798612e-03  -2.7725110827286534e-03  -3.3196786241424651e-03  -4.6491200780922164e-04  -1.7619863283190805e-04  -1.4218317670043061e-03  -1.8582667560826166e-03  -2.0565177479623992e-04  -4.3315028470912341e-03  -3.2407339338278644e-04  7.6214279764062222e-04  3.9508632838463638e-04  2.2431885307259801e-04  -1.1773743860599285e-04  -1.4776985296053335e-