<?xml version="1.0"?>
<VTKFile type="UnstructuredGrid"  version="0.1"  >
<UnstructuredGrid>
<Piece  NumberOfPoints="6486" NumberOfCells="12696">
<Points>
<DataArray  type="Float64"  NumberOfComponents="3"  format="ascii">0 2.5 0  0 0 0  2.5 0 0  2.5 2.5 0  1.25 0 0  2.5 1.25 0  1.25 2.5 0  0 1.25 0  1.25 1.25 0  0 0.625 0  0.625 0 0  0.625 2.5 0  0 1.875 0  2.5 0.625 0  1.875 0 0  2.5 1.875 0  1.875 2.5 0  1.770833333333333 0.7291666666666666 0  0.7291666666666666 1.770833333333333 0  0.9375 0.625 0  1.875 1.5625 0  0.642361111111111 1.163194444444444 0  1.341594827586207 1.883979885057471 0  0.46875 0.46875 0  2.03125 2.03125 0  0.3626104797979798 1.513178661616162 0  1.381740196078431 0.4564950980392157 0  0.9375 2.172619047619047 0  2.172619047619047 0.9375 0  2.096354166666667 0.4036458333333332 0  0.4036458333333333 2.096354166666667 0  1.684027777777778 1.163194444444444 0  0.3418803418803419 0.8693910256410255 0  1.642742622813391 2.162164207604464 0  1.275619849389031 0.8465650753054845 0  0.9136284722222221 1.434461805555556 0  1.732437511238546 0.3406962303960658 0  0.9714402568595876 1.029779313093998 0  1.52281746031746 1.485615079365079 0  2.1875 1.71875 0  1.06819722569879 0.2997236128493951 0  2.136114211309524 1.303478422619048 0  0.3125 0 0  0 0.3125 0  2.5 2.1875 0  2.1875 2.5 0  0.3200021620376328 1.192323085056694 0  0.6738456129277992 0.8304377375553881 0  1.757891808928991 1.861952730357003 0  1.5625 0 0  0.9375 0 0  0.3125 2.5 0  2.1875 0 0  2.5 0.9375 0  0 0.9375 0  0 1.5625 0  0.9375 2.5 0  2.5 0.3125 0  0 2.1875 0  1.5625 2.5 0  2.5 1.5625 0  0.7448220909826522 0.3003573636608841 0  1.027298850574712 1.871151477832512 0  1.331260495098891 2.197262878816185 0  1.207917681892289 1.582765010956622 0  0.4339993447432606 1.801186844743261 0  0.6337298768939392 1.443093039772727 0  2.049851190476191 0.6826636904761904 0  0.6584821428571428 2.219122023809524 0  1.89575676467455 0.9798457973793544 0  1.437570562095628 1.059380588255917 0  1.502090052505845 0.6987070896496241 0  0.2040860661083546 1.705323965099331 0  0.2083333333333333 0.46875 0  0.5070952039991439 0.2211150679997147 0  0.6916302856529919 0.5813591430410241 0  2.265625 1.953125 0  2.2265625 2.2265625 0  1.886424081252096 2.243391360417365 0  1.40625 0.202164758520858 0  0.2269345238095238 0.2269345238095238 0  1.152730869673694 0.5225850378741401 0  1.885631899587912 1.312095130148776 0  1.614808884009367 0.9049784971014416 0  1.890095442220658 0.5126535558463003 0  2.323168682795699 0.46875 0  2.268811725689575 0.2304742875213018 0  0.6002389442105756 1.967426444210576 0  0.1768313172043011 2.03125 0  0.2311882743104251 2.269525712478698 0  2.03125 0.176831317204301 0  2.280262553344767 0.6954945504579233 0  1.979219539285994 1.809922269642997 0  2.336309523809524 1.09375 0  1.09375 2.336309523809524 0  0.9314042474388009 1.662973812215543 0  0.1634067999087722 1.40625 0  2.337090640094896 1.40625 0  1.141616997467638 2.069311773587991 0  0.46875 2.338939559681489 0  1.542440307908715 1.734944797244472 0  1.556713687786879 1.956977865354753 0  0.8264238995344066 1.975424467820646 0  1.466326331454725 1.275271369760862 0  1.655675324257095 0.5444159974393489 0  0.3385416666666666 0.6479255698005697 0  0 0.78125 0  0.5236073939200119 0.984090461540625 0  2.091665741047893 1.519793517904215 0  1.71875 2.5 0  0.5356538886262603 1.623137930505009 0  0 1.09375 0  0.1932884281517095 1.015625 0  0.8569313582417669 1.2198915584249 0  0.8876981284879677 0.8329884081524883 0  1.115618488474214 0.7219586973356271 0  1.186950366204949 1.043465130075318 0  2.057459118787237 1.110823087309335 0  1.830651283878689 2.049810069572418 0  1.689107969301489 1.367247437031697 0  0.4921048768039656 1.298643370653124 0  0.8213975694444444 2.336309523809524 0  2.03125 2.5 0  1.049729400480002 1.283723261332814 0  1.308101375801673 0.6489479469700392 0  2.5 2.34375 0  0.4968777175037714 0.7562964879736076 0  1.40625 2.5 0  1.501347663534097 2.307027627307738 0  1.602813712048603 0.1926218191360736 0  0.8393082906308107 0.463778306132633 0  1.682663349152719 1.598471865581041 0  0.7774174680851571 1.560004941327907 0  1.554204170364662 0.3898593897892066 0  1.842184459051087 0.186443880058197 0  1.358107417651776 1.696381759610015 0  1.18859291992392 1.77598670078022 0  0.1875331222687418 0.7609599743339348 0  1.339536743965101 1.422080365801479 0  0.7788179348750389 0.9955343414928611 0  0.9062978492805438 0.1919636509126373 0  1.256007360640958 0.3160320559396114 0  1.09375 0 0  1.174986727221844 0.1594990293443933 0  2.34375 1.796875 0  2.318026474511116 1.589177949022232 0  2.34375 2.5 0  1.672742954892153 2.332882724550692 0  0.2683637361947215 1.874801596909639 0  2.174770749820102 0.5581009131310781 0  1.443279522965991 0.8870068372898454 0  0.3385416666666667 0.3571428571428572 0  0.78125 0 0  2.060421048269335 2.314363248763811 0  1.088078737088509 0.8967352118723447 0  1.087825368444708 1.454931510884769 0  2.018308232129541 0.8548495425854904 0  1.943987311736842 0.3246298523011434 0  1.71875 0 0  1.85337849796276 1.144833312386208 0  2.3486328125 2.1044921875 0  1.407588788651747 2.042968789119587 0  2.336309523809524 0.865366648092144 0  2.34375 0 0  2.5 0.15625 0  0.15625 2.5 0  0 2.34375 0  0.1638044648294291 1.242263417405867 0  0.356216654757926 1.032569427322806 0  0.3188217956111817 1.355736727000647 0  0.5924956460852111 0.36112522004736 0  0.6594216488965849 0.1603472116132387 0  1.841804599497131 1.72214349266521 0  0.15625 0 0  0 0.15625 0  2.115898634821499 1.894570904464496 0  0.7821877980253907 0.7129993435924866 0  1.003820447087786 0.4516053462784233 0  0.477562948779147 1.138333049293613 0  0.719493678605015 1.305655360135975 0  0.9772457618587566 2.020350128938537 0  0.8764738248887107 1.826219722709673 0  1.254787875123819 2.339010653832026 0  2.343597354852534 1.249982759769001 0  0.78125 2.5 0  0.46875 2.5 0  2.5 1.40625 0  1.09375 2.5 0  2.5 0.78125 0  2.5 1.09375 0  2.03125 0 0  2.5 0.46875 0  1.40625 0 0  0.46875 0 0  0 0.46875 0  0 1.40625 0  0 1.71875 0  0 2.03125 0  2.5 1.71875 0  2.5 2.03125 0  2.005424054645407 1.653223486966518 0  0.1538730573856537 1.559850281736677 0  2.33984375 2.33984375 0  1.166539506212474 1.922878979538754 0  0.3914885633949916 1.65887232812171 0  0.5795503163042564 1.766243562569382 0  0.399533125920212 1.946786875081388 0  0.7866324979014098 2.127719094551316 0  0.3654683023546834 0.1495701132219454 0  0.1527388747131078 0.6116379440619215 0  2.013737577140188 1.391056634712135 0  1.17635437372994 2.213329084238133 0  1.737118141866284 1.010577140843115 0  2.200707118087222 1.164723314085963 0  1.697018908736685 1.993548551451517 0  0.5387621649009668 0.6070503962352419 0  2.032805785855952 0.5330427622570983 0  1.082699501358059 1.667818725183932 0  1.503819781540653 0.5468420196858188 0  2.015409142866072 2.175941657590429 0  1.752057611265444 0.869642097111018 0  0.612251684107783 2.356045720700959 0  1.902817102342857 0.6607642211999982 0  2.159616561739693 0.7867739969338844 0  0.5120038350106624 2.197302352398502 0  1.888200216011548 1.919501662489862 0  1.495909909726654 2.16028358757309 0  0.489139876703609 1.443203008943564 0  0.8819175670410521 0.3301172743913011 0  1.882591144370812 0.8155965192707721 0  1.133979796994841 1.172526771862882 0  2.206217447916667 2.084147135416667 0  2.20361328125 2.36279296875 0  1.395746985657004 1.556054166359645 0  1.704383111516207 1.734750450338683 0  0.9575737847222222 2.36274223823052 0  1.035150984253136 0.1302833343179028 0  1.383966125325753 0.7651479963479179 0  1.64003252158672 0.6824316405528895 0  2.22550785055421 1.487078576356817 0  1.760964431499756 1.48495222505201 0  1.276460980673788 2.004207003584658 0  0.1341477688427096 1.828777507920502 0  1.542261434180652 1.155296658359034 0  1.334627911613854 0.9696897472490321 0  1.30794231473696 1.119420615785191 0  0.7028260459857245 0.4438906910721139 0  1.625757433094055 1.84268057552138 0  0.9818707849053143 1.165603626132254 0  2.0086489901463 1.243134585689553 0  1.934584460420609 2.374094051915812 0  1.798434376789567 2.38671361912528 0  1.206314791201715 1.382064292497919 0  0.6333752893366955 0.7023738550008095 0  0.7796219811205605 1.42573253164258 0  1.564399711917382 1.026040828857629 0  0.3385416666666666 0.4889012896825397 0  0.1041666666666667 0.390625 0  0.989112246382566 1.543537365516289 0  2.025724425454636 0.9846960595520872 0  0.6602885475034063 2.086117390485779 0  1.607130551925032 1.267198646640915 0  0.1317864544877056 0.8896173683400176 0  1.755387840017567 2.230364320056445 0  1.301540702984401 0.1216289692748247 0  1.433170657577442 0.3331052752740999 0  1.500459610550388 0.113513924782439 0  0.6494291520606965 1.029586599619295 0  1.010146149868299 0.794897284196169 0  0.3700844198238017 2.235390157870766 0  0.3360891767780704 2.36656279435396 0  1.876856241037701 1.437150669863757 0  1.778674102957329 1.245979347269706 0  0.5472829890977179 0.1005517127039925 0  0.4669074189005698 0.3416784232954367 0  1.472765289289269 1.850899166481903 0  1.555853593327178 1.608452097912802 0  0.6708955559113426 1.646561631116984 0  0.8164699620322933 0.5924479455478063 0  0.3167738989468366 1.758696809749795 0  0.2788007305565096 1.605499483471246 0  0.7821720982350511 0.181524936294752 0  1.376812251214195 2.313340247908297 0  1.785652202614777 0.5962261755537186 0  1.761467296310972 0.4679567244718574 0  2.2265625 1.8359375 0  2.3828125 1.9140625 0  0.5279531607054191 2.071552361614785 0  2.397573269551114 0.234375 0  2.383578172599618 0.3589298466020009 0  0.1024267304488855 2.265625 0  0.1164218274003825 2.141070153397999 0  0.2696857594953064 2.135405441512016 0  2.164961300137334 0.1375322943529536 0  2.137757548369486 0.2724194778647587 0  2.238873711826398 0.3626419179496562 0  0.1001414910226386 0.234375 0  0.2176339285714286 0.3478422619047619 0  0.2503620791333544 0.1061694061057066 0  2.336445461915368 0.1250451055247424 0  0.2154004640409726 2.3918124
[...]
<PointData  Scalars="f_49-0"> 
<DataArray  type="Float64"  Name="f_49-0"  format="ascii">-6.6988269082621042e-03  -1.2879031164328118e-02  -5.5496903186611612e-03  -4.7879709030178175e-03  -9.1819196472127732e-03  -5.7588426397505530e-03  -6.9654720752597788e-03  -1.0333747088600607e-02  -7.7428532886884994e-03  -1.2130103527316164e-02  -1.1082858200346412e-02  -6.8337867936212691e-03  -8.4446366891829695e-03  -5.4886547066272801e-03  -7.1965353195705033e-03  -5.7919243690346027e-03  -6.7840442460464917e-03  -7.8263430614277998e-03  -8.9192291882563557e-03  -9.7145516807113311e-03  -6.9647807602503655e-03  -1.0552719243863029e-02  -8.4520127079755914e-03  -8.7641734719992488e-03  -5.9315219422310011e-03  -9.6305264178943896e-03  -8.9577771687528139e-03  -7.8421081491361812e-03  -6.6286775220288563e-03  -6.6220275680750895e-03  -7.9288068373401799e-03  -8.0118073763261952e-03  -1.1405312393377613e-02  -7.5842454442292045e-03  -9.0845571336126748e-03  -9.7721316664255865e-03  -7.6848524990935103e-03  -8.4147256009010438e-03  -7.1410836800194074e-03  -6.4757200262407716e-03  -9.8251735773815935e-03  -6.8701788422879766e-03  -1.1844374825380352e-02  -1.2883511850154416e-02  -5.2774039102466462e-03  -5.8660016337821995e-03  -1.0483288685212215e-02  -9.7507967401460911e-03  -6.6392146440611526e-03  -8.1067823223554877e-03  -1.0123705643720528e-02  -6.6935563521288823e-03  -6.2206899417998687e-03  -5.5448998299698288e-03  -1.1123256988550800e-02  -9.4312689057656808e-03  -6.8918819508384764e-03  -5.4492742001803311e-03  -7.5891695455062849e-03  -6.9409820003809514e-03  -5.8438990922941971e-03  -1.0726610111378071e-02  -8.6185826530665744e-03  -7.7309577255495199e-03  -8.8583982157478588e-03  -8.8353459964087850e-03  -9.8188989210449169e-03  -6.8482826812447098e-03  -7.6137191832658761e-03  -7.4948369474156229e-03  -8.4905500278988442e-03  -8.6198562389031615e-03  -9.0547925927191818e-03  -1.2288778800375636e-02  -1.1218317831619976e-02  -8.9992216779576622e-03  -5.9129315098971173e-03  -5.4391500849416746e-03  -6.7717092171564472e-03  -8.7204822674063227e-03  -7.7352952391012836e-03  -9.6330982653477972e-03  -7.4897685219008549e-03  -8.3339334105364364e-03  -7.2705586244274957e-03  -5.9523101917193849e-03  -6.0895716464483048e-03  -8.3788270143768592e-03  -8.0290048846826858e-03  -7.3630242751377816e-03  -6.7927654540974403e-03  -6.1420449119297827e-03  -6.2741881190911701e-03  -6.1491004944720928e-03  -7.3884267598878037e-03  -9.1808211201361793e-03  -9.9288777582348612e-03  -6.2759897766765920e-03  -8.0993960206964498e-03  -7.2184937230492571e-03  -7.4578913140420557e-03  -7.8114585790119446e-03  -8.3856040839500202e-03  -7.6508010611134204e-03  -8.1395887824905113e-03  -1.1799835131364879e-02  -1.1634687501521912e-02  -1.1005087662009271e-02  -6.9010142708793715e-03  -6.9284695081068964e-03  -9.3114363262318950e-03  -1.0714340051285900e-02  -1.0959038384597537e-02  -9.9874524723508867e-03  -8.4314268673040937e-03  -9.4956022027866890e-03  -8.0827581751801991e-03  -7.0171746398185238e-03  -6.6618847044972807e-03  -7.5186777551528930e-03  -1.0200404454043271e-02  -7.3289449424033546e-03  -6.4187041843838258e-03  -8.9208994871804639e-03  -9.1821928586299124e-03  -4.9529336411028692e-03  -1.1102105449364756e-02  -6.9609098715770791e-03  -7.4238062540710357e-03  -8.0446047681108062e-03  -1.0335102214007881e-02  -6.8186915905016840e-03  -9.4778995562923053e-03  -8.3723010391461121e-03  -7.2791318005533149e-03  -8.3762721821761827e-03  -8.8321074047237411e-03  -1.1688536052332357e-02  -7.6425699238213607e-03  -9.8191319698302023e-03  -1.0255789446699543e-02  -9.2911269761520865e-03  -9.6717030894723863e-03  -9.5383190175214617e-03  -6.1514629729367224e-03  -6.3601593080986531e-03  -5.2032092243257727e-03  -7.2987780995425154e-03  -8.5677120625009141e-03  -6.3866840917653498e-03  -8.7604736112475417e-03  -8.9032413409333988e-03  -1.0561057224595015e-02  -6.1275794185268306e-03  -8.5655394416789959e-03  -9.2026949748264548e-03  -7.0974301227798081e-03  -7.0414862412622225e-03  -7.6703784723705631e-03  -7.6345796143798047e-03  -5.5187045090990252e-03  -8.0739080375976432e-03  -6.0077725145000985e-03  -5.9199166467966656e-03  -5.5221145710264014e-03  -6.6836654352005606e-03  -7.0259704016054749e-03  -1.0329188312250871e-02  -1.0975579678078782e-02  -1.0049337547901780e-02  -1.0504127921977011e-02  -1.0964375340301487e-02  -6.4834564272035411e-03  -1.2346043789939301e-02  -1.3485825102516343e-02  -6.0499368043118755e-03  -8.6486521204238963e-03  -1.0012980381661108e-02  -1.0692757157012458e-02  -1.0186286950066492e-02  -8.2581018234282374e-03  -8.7604771901868741e-03  -7.4022365333322425e-03  -6.2408612864035835e-03  -6.8595724056273464e-03  -6.7296173860122684e-03  -5.8289346169041580e-03  -6.9304291637129114e-03  -5.5601881840264501e-03  -5.6537084277345061e-03  -6.7861272350060852e-03  -5.4634258526067465e-03  -8.5021136513207599e-03  -1.1480964237865527e-02  -1.2513770247311854e-02  -9.9305839746492656e-03  -8.9931382595060620e-03  -8.0597974994250123e-03  -5.8815405693035810e-03  -5.5673098491029679e-03  -6.7233628704764115e-03  -9.4660822768052252e-03  -5.1770271970780430e-03  -8.4904593761810764e-03  -9.2767094712607832e-03  -8.9215184177319200e-03  -8.3820918882289291e-03  -7.9485560333284501e-03  -1.1340896287910194e-02  -1.2106428411429114e-02  -7.1775573566606674e-03  -7.7471391831630178e-03  -7.9596272411498435e-03  -6.6111934254952393e-03  -7.2166016517617743e-03  -9.2289852746406057e-03  -6.8676908832012449e-03  -9.1497790110219076e-03  -8.5870878791843124e-03  -6.0971852954658330e-03  -7.9202434819913015e-03  -7.2039394024466276e-03  -7.3326798679523245e-03  -6.5626997335537559e-03  -7.6469401633010477e-03  -6.2564978263124627e-03  -7.7698910989228284e-03  -9.8139954365064879e-03  -1.0330467123110332e-02  -7.4460141368760955e-03  -8.0351373425709503e-03  -5.5818288213349285e-03  -5.5648005181983340e-03  -7.7077209777089420e-03  -6.7082436384167223e-03  -7.2678471800785138e-03  -9.9105142216010019e-03  -8.9838327108874537e-03  -8.1969088268676847e-03  -6.6394951070595284e-03  -7.1489585671421019e-03  -8.2588974915845850e-03  -8.7168376200970690e-03  -8.1685040367975963e-03  -8.7470098388108906e-03  -7.9807962358716678e-03  -1.0217015336839014e-02  -7.2715709326836514e-03  -9.0188301474084676e-03  -7.2356474509113582e-03  -6.7159247469540245e-03  -7.0530498060642757e-03  -8.3009485576557521e-03  -9.1448408721182938e-03  -9.8737166173879301e-03  -8.4281308003260041e-03  -1.0796704458785453e-02  -1.2699191520428909e-02  -9.4813455573907520e-03  -7.0572843910717276e-03  -8.0126381880943984e-03  -7.8262056910539564e-03  -1.1334924247599645e-02  -7.2798602281327757e-03  -9.0348183932590625e-03  -8.7485393751238049e-03  -8.3334950261360514e-03  -1.0694940240267091e-02  -8.8856459565322815e-03  -7.4953511849332371e-03  -7.0940932221246478e-03  -7.3067133282573157e-03  -7.7590161801181093e-03  -1.1243654500365382e-02  -9.5832964298865012e-03  -8.0396789657838520e-03  -7.0528865628023537e-03  -9.2111508803283497e-03  -9.5043845101154961e-03  -8.9328675725986930e-03  -9.3936129206469102e-03  -1.0632991661276433e-02  -7.4235652361036271e-03  -7.7353186235557666e-03  -7.6800190874498327e-03  -6.2185847805221938e-03  -5.9129828928835733e-03  -8.0444366217602252e-03  -5.6588823175438060e-03  -5.7942300839565726e-03  -7.3477748629070302e-03  -7.7730612540027758e-03  -7.7653345875976741e-03  -6.3982544759364577e-03  -6.5080083630492634e-03  -6.2666182823783861e-03  -1.2546051384616659e-02  -1.1259531832302343e-02  -1.1060966591116810e-02  -5.8395536438685999e-03  -6.9940437996602670e-03  -7.7281449239450517e-03  -6.6285286893256025e-03  -7.7171663146069717e-03  -9.7688584148869322e-03  -9.5577938115462956e-03  -9.2299151877205492e-03  -8.2375807660178147e-03  -7.1082866656477454e-03  -1.0305562479363727e-02  -8.2978094596333121e-03  -7.0447043141574081e-03  -5.8624170340044086e-03  -5.8366521090312921e-03  -5.2167838670269901e-03  -9.1376666812020453e-03  -8.5859106423227631e-03  -8.5714099905685390e-03  -8.5136918505372226e-03  -6.6689246687471043e-03  -7.4000000620770669e-03  -7.3757983947631443e-03  -1.1275310657576938e-02  -9.1207236840823436e-03  -8.8933133433494512e-03  -6.4880873451133208e-03  -1.0400635077470502e-02  -6.5340829407854739e-03  -7.9282038195849294e-03  -1.0590306236572282e-02  -5.9257623281691431e-03  -1.1853774698469682e-02  -1.0305048371944627e-02  -6.4847146238093808e-03  -6.0495362221549259e-03  -6.9886513117136508e-03  -7.1631397682772229e-03  -9.7763761969194563e-03  -1.0143474927182280e-02  -6.0274607582546189e-03  -6.5222664455842228e-03  -9.4485415704083555e-03  -7.9168879492038814e-03  -8.1695410424490935e-03  -6.4938960335392181e-03  -7.4413649293884158e-03  -6.1065540136742346e-03  -7.6960890754498917e-03  -7.9881019931163314e-03  -7.1016822528699678e-03  -9.7633395282315707e-03  -1.1709374175032011e-02  -1.0496798410885340e-02  -1.2057834348719201e-02  -8.0530872632755147e-03  -9.2167033962857452e-03  -1.0514665458335976e-02  -6.0203109703013419e-03  -5.9185693063731103e-03  -7.1590666207355805e-03  -6.9143601271659328e-03  -4.9591401872337562e-03  -7.0236818628538955e-03  -6.8948383576344615e-03  -8.9097584907986607e-03  -6.0896535215424243e-03  -8.3895766389792993e-03  -7.2018829259860020e-03  -8.1273277327930018e-03  -8.4998865159617142e-03  -7.5561525634159875e-03  -9.7339719335340514e-03  -9.8992225408266292e-03  -5.6825960117252066e-03  -7.6843181412798427e-03  -8.1883825526542029e-03  -8.6888980192561978e-03  -7.1238258563412768e-03  -1.0750533480452167e-02  -8.9118092621810578e-03  -8.6680923172061976e-03  -8.2888205768944564e-03  -7.1781480437439083e-03  -1.0029187322876035e-02  -8.8791245664900185e-03  -9.2369441568642911e-03  -8.3697105397203334e-03  -7.9831845699739265e-03  -6.2714175315569231e-03  -9.5592650341374350e-03  -9.2716643481310333e-03  -1.1000668568560390e-02  -7.6457935920444175e-03  -1.1293438188042784e-02  -8.6856993945213703e-03  -5.7972560927853104e-03  -7.3070265944855826e-03  -8.0037196456286888e-03  -6.3510637796229128e-03  -9.4963659080837329e-03  -1.2409739485301975e-02  -1.0994710246657201e-02  -7.3253600871683042e-03  -6.8458217332412682e-03  -8.1991443522142562e-03  -6.8925010189747875e-03  -7.2245133847867156e-03  -9.4757968427160322e-03  -1.0934189193113751e-02  -5.7189430905034856e-03  -9.4951457331413740e-03  -9.2988435141124100e-03  -9.1793215263491403e-03  -6.3427429271168852e-03  -9.1228243478429661e-03  -9.5069225447819618e-03  -7.5226228274413659e-03  -1.0942467585809515e-02  -1.0779000262870066e-02  -6.7500468219755961e-03  -8.1608053852762104e-03  -8.2259301749579589e-03  -6.3200479434802389e-03  -7.5544341669761903e-03  -1.0025914276054787e-02  -1.0400147845521795e-02  -8.7122541702047661e-03  -6.6427116881481096e-03  -6.7095947611634284e-03  -6.2485661847674649e-03  -1.0784990266572064e-02  -8.7492717694837834e-03  -7.0942032631527143e-03  -7.4109967687452840e-03  -6.7659424771813036e-03  -9.2507445567756551e-03  -8.2978801649322247e-03  -8.6860033988210312e-03  -7.9401409036357808e-03  -1.0714397315402750e-02  -6.1334923757152661e-03  -8.9557890750563505e-03  -8.1547524223109930e-03  -7.4308068431661756e-03  -5.3507703475857539e-03  -9.9689847425305546e-03  -6.9181018014973479e-03  -8.8760540962820999e-03  -1.0108082328643580e-02  -6.0608005657748687e-03  -8.9503571823247620e-03  -1.0734727759022218e-02  -7.6171141384376358e-03  -5.7498587462110002e-03  -6.3412899433144447e-03  -6.8872809160414345e-03  -9.5004497086531459e-03  -1.1555858318442818e-02  -8.8201968363206956e-03  -1.1595810097246780e-02  -8.0681120139709846e-03  -8.3805136300414852e-03  -1.0255303007543888e-02  -6.4894531003873478e-03  -6.6783140792859722e-03  -9.9958245306861239e-03  -7.5212180924508010e-03  -1.1155907513877409e-02  -8.3578898022644028e-03  -1.1959951628525553e-02  -7.0016344960291176e-03  -1.0558213259234272e-02  -1.0069516994651211e-02  -9.5517310867845942e-03  -9.0420528809101713e-03  -9.0099436018924537e-03  -8.6397018378424409e-03  -8.5951505753740966e-03  -8.4678605897302948e-03  -1.1455231255728324e-02  -6.7221127220973408e-03  -6.4641326307528441e-03  -5.6943773812600761e-03  -7.3965503944494601e-03  -1.0510762593235764e-02  -6.9351164806278594e-03  -9.9063347836580579e-03  -9.7673692817074817e-03  -1.0369733736451624e-02  -7.8491739567952360e-03  -9.6254386106174889e-03  -8.6616968005016736e-03  -6.6880571927246616e-03  -8.5469609838372870e-03  -5.5501193929623745e-03  -6.3341233019755493e-03  -7.4634821457265849e-03  -6.9241928536789860e-03  -8.4556515163841713e-03  -5.7346471564667057e-03  -7.0168924204813037e-03  -8.2270641532784777e-03  -7.8711906782761160e-03  -1.1602251620224789e-02  -5.4565483354587080e-03  -5.7314053763373330e-03  -7.1484072381856794e-03  -1.0125916795649326e-02  -8.6957281658021687e-03  -8.8017268301797871e-03  -7.7680463320524409e-03  -6.4118726073847474e-03  -1.0015846904316634e-02  -7.9651621306268700e-03  -9.9879134920986667e-03  -1.0937966399994350e-02  -7.2896895615019762e-03  -8.7476055291082662e-03  -8.2870026683208569e-03  -6.9605549930283469e-03  -7.0182448412975402e-03  -9.6975151754536450e-03  -1.0491331958181006e-02  -7.7396254653772263e-03  -6.1101700119835329e-03  -7.7076229579663494e-03  -8.6151310122850357e-03  -7.8830578357603036e-03  -7.7201259228358186e-03  -6.7170251127239107e-03  -8.0555496163470242e-03  -6.3172000872378491e-03  -6.6566207049121098e-03  -9.3052656718422191e-03  -5.5264192920982096e-03  -6.9069147707447346e-03  -6.8673405902430120e-03  -7.2676111267661334e-03  -5.9858802608242796e-03  -6.0509459303186505e-03  -6.0938612843643679e-03  -5.5514253415114827e-03  -7.8966922835375063e-03  -6.5487483774772752e-03  -1.0728079980438348e-02  -1.0747995885352456e-02  -8.2378756391262124e-03  -7.4616372369336222e-03  -7.0852572539866331e-03  -7.8557691017134279e-03  -5.3945311073438007e-03  -5.4324032643491950e-03  -8.9168293449833520e-03  -8.6913702810534014e-03  -5.9794018234202587e-03  -7.6189256159236605e-03  -8.9640731112011068e-03  -1.0244308558075742e-02  -6.5163960052424669e-03  -7.4629863876721127e-03  -6.1159749782034364e-03  -8.5084418141086870e-03  -1.0922682410087741e-02  -8.6769407009786841e-03  -8.6633198205602283e-03  -5.6688455915823686e-03  -6.9168023784792788e-03  -1.1331029119063234e-02  -5.7408201762671057e-03  -7.1838089210790098e-03  -8.3838423597047268e-03  -7.9915754157986723e-03  -7.8858923211152319e-03  -5.0603596616677115e-03  -7.2703007873757596e-03  -7.0965641992835936e-03  -5.6247946085823440e-03  -1.1528168017089087e-02  -9.5539566830315434e-03  -8.7095476486666705e-03  -6.4743468555231538e-03  -5.7684511054298965e-03  -8.8836803209769843e-03  -7.1353197495931716e-03  -1.1153254222465442e-02  -8.4107535699432193e-03  -5.7107142634130487e-03  -7.7280815149070948e-03  -1.1083470123246794e-02  -1.0057954304816463e-02  -7.0722548433724058e-03  -1.0225223780522251e-02  -8.3171341645605010e-03  -9.8042801180071547e-03  -6.5440488184158353e-03  -7.4939607549997433e-03  -9.3932662971154702e-03  -1.0042292657631768e-02  -1.0673259822398577e-02  -1.1083413975459913e-02  -1.0856440927658664e-02  -9.2994979552897643e-03  -1.0757166899049427e-02  -5.8797003629658933e-03  -5.6108088430778134e-03  -8.1942423152876996e-03  -9.5174160539883527e-03  -8.4626103581027286e-03  -9.8368519754111882e-03  -1.2646230540427569e-02  -6.5344463733732492e-03  -6.3316211766114268e-03  -9.9747930021398586e-03  -6.0069181458765452e-03  -6.1894000853691903e-03  -5.6100081533141510e-03  -8.2999117612236432e-03  -5.9383402945060258e-03  -9.0381514473910247e-03  -6.2353989918637991e-03  -8.7806054941619149e-03  -7.5609745266772485e-03  -7.3746939881242195e-03  -1.2444033507517455e-02  -1.3525271555584228e-02  -5.8899669284251744e-03  -8.8838352002028071e-03  -5.2687854970124596e-03  -7.5253833302681462e-03  -7.7712978479487398e-03  -5.6267835357074625e-03  -8.6821742143299938e-03  -8.8417579951011859e-03  -8.1152878096052410e-03  -6.8726740463290938e-03  -9.3243475006452581e-03  -9.8375233475184471e-03  -6.6787332282463585e-03  -1.1819130687794983e-02  -6.1616857943757467e-03  -6.7749389523416833e-03  -1.0021263894764435e-02  -6.7773052525200994e-03  -1.1605827192657295e-02  -9.1261455435009530e-03  -7.8690966301607178e-03  -8.1831352109784528e-03  -8.6748534558025690e-03  -6.1371977363668759e-03  -7.6713918532292499e-03  -7.0102098320068400e-03  -9.2767012499450890e-03  -8.4369764486641654e-03  -7.1916635334334442e-03  -6.2561913812338443e-03  -5.9969780193770044e-03  -7.7880091231954610e-03  -1.0342625747930243e-02  -7.1524881436305175e-03  -6.0349143678728656e-03  -9.3717886753652575e-03  -5.5083866725852207e-03  -6.8707102714109774e-03  -6.1691987410714437e-03  -6.8810491448064743e-03  -6.7040405007086513e-03  -6.9468211401292725e-03  -9.2121798766109687e-03  -6.8597281033716956e-03  -5.8833049301137653e-03  -7.3763244124522990e-03  -7.8714206110238483e-03  -5.6984215873108262e-03  -5.8085806401351045e-03  -5.8436493552084705e-03  -1.0899402655387979e-02  -1.0511773053292267e-02  -1.0137766786055451e-02  -6.9448901742616221e-03  -1.1940789601096525e-02  -1.0332676822942297e-02  -6.9972029238910185e-03  -8.2717012177178900e-03  -6.6717294768434878e-03  -1.2131642620924869e-02  -7.2590633113989427e-03  -5.4714942103465383e-03  -1.1314463707847461e-02  -8.3461842837939722e-03  -1.3177634786233549e-02  -1.2710317531467126e-02  -6.8693628684204453e-03  -5.1002156027705687e-03  -4.8619235901208894e-03  -4.9470401770288627e-03  -9.6343115556109110e-03  -6.9285698006976860e-03  -1.2301991274472585e-02  -5.8875692840116576e-03  -5.4577169770979620e-03  -5.4509836225264509e-03  -7.4146918695706405e-03  -7.7543997485055886e-03  -9.3000936925727914e-03  -7.0460720114432288e-03  -8.6952473836813902e-03  -7.1810908447246802e-03  -8.7333407168359023e-03  -1.0302062232698929e-02  -9.0785811096287337e-03  -6.3330630596971993e-03  -1.1526889545570249e-02  -9.1645553408156201e-03  -1.2176418319558541e-02  -8.1623303361070664e-03  -1.0212493851575247e-02  -9.8190170174522664e-03  -8.0670913469759412e-03  -9.7632884628742009e-03  -9.4605308050468972e-03  -9.3157501574613489e-03  -1.0120041090780461e-02  -1.1905837607511242e-02  -1.2271214420046578e-02  -6.4461401214327236e-03  -7.7050567060627352e-03  -8.4298920975811042e-03  -6.6971184515958859e-03  -1.0005127931198173e-02  -6.0463786542773327e-03  -9.5872229193221057e-03  -8.1540424683239320e-03  -8.4466165497213610e-03  -1.1193541025776872e-02  -7.5375016637677893e-03  -8.3252474509325994e-03  -8.7545948013488580e-03  -1.0373117522684043e-02  -9.5438000433616561e-03  -7.1487555735216431e-03  -6.2108406770947922e-03  -1.1079204436292652e-02  -6.6407447839531893e-03  -6.3513256464056310e-03  -9.7402984386220706e-03  -8.0634383821545745e-03  -9.3167832001590147e-03  -7.6755627242430730e-03  -9.4226243610658518e-03  -6.5081364245719716e-03  -9.1856278645589106e-03  -9.0091947666289373e-03  -7.7344296957081466e-03  -7.3601124954190038e-03  -7.3279109410192217e-03  -7.0305114758451798e-03  -7.1136180680087700e-03  -7.8527819400172998e-03  -9.9318418769435927e-03  -8.1238160575058879e-03  -8.9132534516502548e-03  -9.0897226955206599e-03  -8.6237340655655401e-03  -8.4941671842977736e-03  -7.3351440167125134e-03  -8.5409926866174962e-03  -7.6441356614854860e-03  -7.4012713592423399e-03  -7.9908230101001978e-03  -8.2978065853769271e-03  -9.4391000955825893e-03  -9.3407793023848485e-03  -9.0612075163560828e-03  -8.2290652946863888e-03  -6.4178695852817680e-03  -7.6121892459173534e-03  -7.5620416845436026e-03  -7.6185669184894037e-03  -7.6776083822915559e-03  -7.4659739781939398e-03  -7.3837397677857450e-03  -7.1909500041310651e-03  -8.6164025496211633e-03  -6.5971654305130587e-03  -5.8054859080887049e-03  -6.6959530302374629e-03  -9.0378544890493389e-03  -9.8691413574920929e-03  -1.0416053003963453e-02  -7.5538541811594985e-03  -6.8568022557295915e-03  -8.5183045169986010e-03  -8.9534369458532208e-03  -7.2286549063517412e-03  -1.1427975371818716e-02  -7.1699365145444617e-03  -5.92993325