<?xml version="1.0"?>
<VTKFile type="UnstructuredGrid"  version="0.1"  >
<UnstructuredGrid>
<Piece  NumberOfPoints="6486" NumberOfCells="12696">
<Points>
<DataArray  type="Float64"  NumberOfComponents="3"  format="ascii">0 2.5 0  0 0 0  2.5 0 0  2.5 2.5 0  1.25 0 0  2.5 1.25 0  1.25 2.5 0  0 1.25 0  1.25 1.25 0  0 0.625 0  0.625 0 0  0.625 2.5 0  0 1.875 0  2.5 0.625 0  1.875 0 0  2.5 1.875 0  1.875 2.5 0  1.770833333333333 0.7291666666666666 0  0.7291666666666666 1.770833333333333 0  0.9375 0.625 0  1.875 1.5625 0  0.642361111111111 1.163194444444444 0  1.341594827586207 1.883979885057471 0  0.46875 0.46875 0  2.03125 2.03125 0  0.3626104797979798 1.513178661616162 0  1.381740196078431 0.4564950980392157 0  0.9375 2.172619047619047 0  2.172619047619047 0.9375 0  2.096354166666667 0.4036458333333332 0  0.4036458333333333 2.096354166666667 0  1.684027777777778 1.163194444444444 0  0.3418803418803419 0.8693910256410255 0  1.642742622813391 2.162164207604464 0  1.275619849389031 0.8465650753054845 0  0.9136284722222221 1.434461805555556 0  1.732437511238546 0.3406962303960658 0  0.9714402568595876 1.029779313093998 0  1.52281746031746 1.485615079365079 0  2.1875 1.71875 0  1.06819722569879 0.2997236128493951 0  2.136114211309524 1.303478422619048 0  0.3125 0 0  0 0.3125 0  2.5 2.1875 0  2.1875 2.5 0  0.3200021620376328 1.192323085056694 0  0.6738456129277992 0.8304377375553881 0  1.757891808928991 1.861952730357003 0  1.5625 0 0  0.9375 0 0  0.3125 2.5 0  2.1875 0 0  2.5 0.9375 0  0 0.9375 0  0 1.5625 0  0.9375 2.5 0  2.5 0.3125 0  0 2.1875 0  1.5625 2.5 0  2.5 1.5625 0  0.7448220909826522 0.3003573636608841 0  1.027298850574712 1.871151477832512 0  1.331260495098891 2.197262878816185 0  1.207917681892289 1.582765010956622 0  0.4339993447432606 1.801186844743261 0  0.6337298768939392 1.443093039772727 0  2.049851190476191 0.6826636904761904 0  0.6584821428571428 2.219122023809524 0  1.89575676467455 0.9798457973793544 0  1.437570562095628 1.059380588255917 0  1.502090052505845 0.6987070896496241 0  0.2040860661083546 1.705323965099331 0  0.2083333333333333 0.46875 0  0.5070952039991439 0.2211150679997147 0  0.6916302856529919 0.5813591430410241 0  2.265625 1.953125 0  2.2265625 2.2265625 0  1.886424081252096 2.243391360417365 0  1.40625 0.202164758520858 0  0.2269345238095238 0.2269345238095238 0  1.152730869673694 0.5225850378741401 0  1.885631899587912 1.312095130148776 0  1.614808884009367 0.9049784971014416 0  1.890095442220658 0.5126535558463003 0  2.323168682795699 0.46875 0  2.268811725689575 0.2304742875213018 0  0.6002389442105756 1.967426444210576 0  0.1768313172043011 2.03125 0  0.2311882743104251 2.269525712478698 0  2.03125 0.176831317204301 0  2.280262553344767 0.6954945504579233 0  1.979219539285994 1.809922269642997 0  2.336309523809524 1.09375 0  1.09375 2.336309523809524 0  0.9314042474388009 1.662973812215543 0  0.1634067999087722 1.40625 0  2.337090640094896 1.40625 0  1.141616997467638 2.069311773587991 0  0.46875 2.338939559681489 0  1.542440307908715 1.734944797244472 0  1.556713687786879 1.956977865354753 0  0.8264238995344066 1.975424467820646 0  1.466326331454725 1.275271369760862 0  1.655675324257095 0.5444159974393489 0  0.3385416666666666 0.6479255698005697 0  0 0.78125 0  0.5236073939200119 0.984090461540625 0  2.091665741047893 1.519793517904215 0  1.71875 2.5 0  0.5356538886262603 1.623137930505009 0  0 1.09375 0  0.1932884281517095 1.015625 0  0.8569313582417669 1.2198915584249 0  0.8876981284879677 0.8329884081524883 0  1.115618488474214 0.7219586973356271 0  1.186950366204949 1.043465130075318 0  2.057459118787237 1.110823087309335 0  1.830651283878689 2.049810069572418 0  1.689107969301489 1.367247437031697 0  0.4921048768039656 1.298643370653124 0  0.8213975694444444 2.336309523809524 0  2.03125 2.5 0  1.049729400480002 1.283723261332814 0  1.308101375801673 0.6489479469700392 0  2.5 2.34375 0  0.4968777175037714 0.7562964879736076 0  1.40625 2.5 0  1.501347663534097 2.307027627307738 0  1.602813712048603 0.1926218191360736 0  0.8393082906308107 0.463778306132633 0  1.682663349152719 1.598471865581041 0  0.7774174680851571 1.560004941327907 0  1.554204170364662 0.3898593897892066 0  1.842184459051087 0.186443880058197 0  1.358107417651776 1.696381759610015 0  1.18859291992392 1.77598670078022 0  0.1875331222687418 0.7609599743339348 0  1.339536743965101 1.422080365801479 0  0.7788179348750389 0.9955343414928611 0  0.9062978492805438 0.1919636509126373 0  1.256007360640958 0.3160320559396114 0  1.09375 0 0  1.174986727221844 0.1594990293443933 0  2.34375 1.796875 0  2.318026474511116 1.589177949022232 0  2.34375 2.5 0  1.672742954892153 2.332882724550692 0  0.2683637361947215 1.874801596909639 0  2.174770749820102 0.5581009131310781 0  1.443279522965991 0.8870068372898454 0  0.3385416666666667 0.3571428571428572 0  0.78125 0 0  2.060421048269335 2.314363248763811 0  1.088078737088509 0.8967352118723447 0  1.087825368444708 1.454931510884769 0  2.018308232129541 0.8548495425854904 0  1.943987311736842 0.3246298523011434 0  1.71875 0 0  1.85337849796276 1.144833312386208 0  2.3486328125 2.1044921875 0  1.407588788651747 2.042968789119587 0  2.336309523809524 0.865366648092144 0  2.34375 0 0  2.5 0.15625 0  0.15625 2.5 0  0 2.34375 0  0.1638044648294291 1.242263417405867 0  0.356216654757926 1.032569427322806 0  0.3188217956111817 1.355736727000647 0  0.5924956460852111 0.36112522004736 0  0.6594216488965849 0.1603472116132387 0  1.841804599497131 1.72214349266521 0  0.15625 0 0  0 0.15625 0  2.115898634821499 1.894570904464496 0  0.7821877980253907 0.7129993435924866 0  1.003820447087786 0.4516053462784233 0  0.477562948779147 1.138333049293613 0  0.719493678605015 1.305655360135975 0  0.9772457618587566 2.020350128938537 0  0.8764738248887107 1.826219722709673 0  1.254787875123819 2.339010653832026 0  2.343597354852534 1.249982759769001 0  0.78125 2.5 0  0.46875 2.5 0  2.5 1.40625 0  1.09375 2.5 0  2.5 0.78125 0  2.5 1.09375 0  2.03125 0 0  2.5 0.46875 0  1.40625 0 0  0.46875 0 0  0 0.46875 0  0 1.40625 0  0 1.71875 0  0 2.03125 0  2.5 1.71875 0  2.5 2.03125 0  2.005424054645407 1.653223486966518 0  0.1538730573856537 1.559850281736677 0  2.33984375 2.33984375 0  1.166539506212474 1.922878979538754 0  0.3914885633949916 1.65887232812171 0  0.5795503163042564 1.766243562569382 0  0.399533125920212 1.946786875081388 0  0.7866324979014098 2.127719094551316 0  0.3654683023546834 0.1495701132219454 0  0.1527388747131078 0.6116379440619215 0  2.013737577140188 1.391056634712135 0  1.17635437372994 2.213329084238133 0  1.737118141866284 1.010577140843115 0  2.200707118087222 1.164723314085963 0  1.697018908736685 1.993548551451517 0  0.5387621649009668 0.6070503962352419 0  2.032805785855952 0.5330427622570983 0  1.082699501358059 1.667818725183932 0  1.503819781540653 0.5468420196858188 0  2.015409142866072 2.175941657590429 0  1.752057611265444 0.869642097111018 0  0.612251684107783 2.356045720700959 0  1.902817102342857 0.6607642211999982 0  2.159616561739693 0.7867739969338844 0  0.5120038350106624 2.197302352398502 0  1.888200216011548 1.919501662489862 0  1.495909909726654 2.16028358757309 0  0.489139876703609 1.443203008943564 0  0.8819175670410521 0.3301172743913011 0  1.882591144370812 0.8155965192707721 0  1.133979796994841 1.172526771862882 0  2.206217447916667 2.084147135416667 0  2.20361328125 2.36279296875 0  1.395746985657004 1.556054166359645 0  1.704383111516207 1.734750450338683 0  0.9575737847222222 2.36274223823052 0  1.035150984253136 0.1302833343179028 0  1.383966125325753 0.7651479963479179 0  1.64003252158672 0.6824316405528895 0  2.22550785055421 1.487078576356817 0  1.760964431499756 1.48495222505201 0  1.276460980673788 2.004207003584658 0  0.1341477688427096 1.828777507920502 0  1.542261434180652 1.155296658359034 0  1.334627911613854 0.9696897472490321 0  1.30794231473696 1.119420615785191 0  0.7028260459857245 0.4438906910721139 0  1.625757433094055 1.84268057552138 0  0.9818707849053143 1.165603626132254 0  2.0086489901463 1.243134585689553 0  1.934584460420609 2.374094051915812 0  1.798434376789567 2.38671361912528 0  1.206314791201715 1.382064292497919 0  0.6333752893366955 0.7023738550008095 0  0.7796219811205605 1.42573253164258 0  1.564399711917382 1.026040828857629 0  0.3385416666666666 0.4889012896825397 0  0.1041666666666667 0.390625 0  0.989112246382566 1.543537365516289 0  2.025724425454636 0.9846960595520872 0  0.6602885475034063 2.086117390485779 0  1.607130551925032 1.267198646640915 0  0.1317864544877056 0.8896173683400176 0  1.755387840017567 2.230364320056445 0  1.301540702984401 0.1216289692748247 0  1.433170657577442 0.3331052752740999 0  1.500459610550388 0.113513924782439 0  0.6494291520606965 1.029586599619295 0  1.010146149868299 0.794897284196169 0  0.3700844198238017 2.235390157870766 0  0.3360891767780704 2.36656279435396 0  1.876856241037701 1.437150669863757 0  1.778674102957329 1.245979347269706 0  0.5472829890977179 0.1005517127039925 0  0.4669074189005698 0.3416784232954367 0  1.472765289289269 1.850899166481903 0  1.555853593327178 1.608452097912802 0  0.6708955559113426 1.646561631116984 0  0.8164699620322933 0.5924479455478063 0  0.3167738989468366 1.758696809749795 0  0.2788007305565096 1.605499483471246 0  0.7821720982350511 0.181524936294752 0  1.376812251214195 2.313340247908297 0  1.785652202614777 0.5962261755537186 0  1.761467296310972 0.4679567244718574 0  2.2265625 1.8359375 0  2.3828125 1.9140625 0  0.5279531607054191 2.071552361614785 0  2.397573269551114 0.234375 0  2.383578172599618 0.3589298466020009 0  0.1024267304488855 2.265625 0  0.1164218274003825 2.141070153397999 0  0.2696857594953064 2.135405441512016 0  2.164961300137334 0.1375322943529536 0  2.137757548369486 0.2724194778647587 0  2.238873711826398 0.3626419179496562 0  0.1001414910226386 0.234375 0  0.2176339285714286 0.3478422619047619 0  0.2503620791333544 0.1061694061057066 0  2.336445461915368 0.1250451055247424 0  0.2154004640409726 2.3918124
[...]
<PointData  Scalars="f_16-0"> 
<DataArray  type="Float64"  Name="f_16-0"  format="ascii">1.1022527753991344e-29  2.2309983266536024e-06  2.1979390161373658e-33  3.0285767052549415e-38  3.1120360625611880e-14  1.5972224354608065e-30  3.1469262689239750e-29  1.2571059412003362e-10  1.1103109975327721e-13  8.1259874123217849e-05  2.4084149316622190e-07  2.7097706059988244e-29  1.5921541721700823e-19  1.8191946202011464e-32  1.4637444783493019e-23  3.3347081720046143e-33  1.1168292508379994e-32  5.7335524549786157e-19  2.9316445709173597e-17  1.2104201184169941e-07  9.2292143540695409e-23  2.2641602156172943e-09  5.5366488938423197e-21  4.4590618355917343e-04  1.1736507515623687e-28  6.2820876019516896e-14  8.1219227096900670e-14  1.3756779567314236e-23  3.5106710616320537e-25  1.3752689109129410e-26  3.8544463162805149e-23  4.2728987726183894e-18  3.3657396806983911e-06  1.2224992340853212e-26  9.3849655658934850e-12  2.9837195866337309e-13  1.5346791385360459e-20  1.1198845168890344e-09  3.3993669588444191e-18  6.5969343389927724e-28  2.2090925110284882e-10  5.7452032256503269e-25  4.9312064474011511e-06  7.0719751816298963e-04  2.0606851511442459e-35  1.8404822896350960e-35  1.2319646069402054e-09  1.7955397414516380e-06  2.9870621186489806e-24  7.7626210642694557e-19  2.5690089096715120e-10  3.2210309594884000e-30  1.1535063095718649e-28  5.3683546275921116e-31  2.3534590347296521e-07  1.1582843502508341e-14  4.8241478940282886e-29  5.2150679774670465e-34  1.4426673509385510e-24  1.2376761205372018e-30  2.1094955713646274e-31  1.5536726133773478e-06  2.3181166560017777e-19  2.8233185033860349e-25  1.2230086250650862e-16  4.2201380478820415e-18  1.3065884096733606e-12  6.1968382336369513e-24  1.0510681517914949e-24  1.0593659095042232e-20  2.3911292296803810e-14  9.0174850736187943e-15  6.9181325052327232e-17  1.0109600500445776e-03  4.8529576568183932e-05  1.9289620120658255e-05  1.0696761472564114e-30  8.4461176293967648e-33  9.6501027355564703e-30  2.9513051949248356e-16  1.8617680846889707e-03  2.6206166366540539e-10  1.7217296304484176e-21  1.9935703747897414e-16  3.8056907204757585e-22  1.1080725428540178e-30  2.6656452893691555e-30  1.9593996735433590e-20  4.8715786164610351e-22  2.2084475855006138e-26  2.8784218521785262e-26  5.0626071669100151e-28  4.9821878966127915e-26  6.8296739883581857e-28  1.8900086211646007e-26  3.0712860314323953e-16  1.0947996855917286e-12  2.1392682969036600e-28  1.2683638755033176e-22  5.7209757482938842e-27  7.2110792051824032e-21  1.5644213402390967e-23  1.8487924231346059e-20  5.3908545333981312e-16  1.0217006054533285e-17  1.6971346340840404e-04  5.7280458541772515e-06  2.4701200456454487e-07  1.8871855625419870e-25  1.6878669354336929e-31  3.3132270458951979e-15  6.1323335061673614e-09  6.1444923935035201e-08  1.0966273991134696e-10  7.9023211891104816e-08  1.1751603254810796e-09  1.1084657071916713e-11  1.9385316559683632e-23  5.6180163969790114e-27  3.0698890686560628e-19  1.0349746782439474e-10  2.0474274187100622e-26  5.2606390681141890e-34  1.4300448048804308e-12  3.9944184996230966e-12  7.7057553832873733e-37  2.3771308973673561e-05  7.0021118243326260e-30  1.1100464405445433e-27  2.7782512899103619e-19  9.1099121603383023e-07  6.9362990195492782e-21  1.6902727523245851e-14  4.7200769720921521e-17  2.9257804297947102e-23  6.2269290828568235e-19  8.7704571365343259e-19  1.5096476799946407e-05  6.0857010205155420e-16  3.7381719230226953e-08  3.0351325428923956e-09  6.6099364483822887e-13  3.3897421013020736e-12  7.2776412630326554e-13  1.4971540526729693e-30  5.4923974510858544e-29  7.2902181193221666e-37  4.4900552458927862e-29  1.7189650561367634e-19  4.8607933081142340e-27  5.1142264465957461e-14  1.4060439677699736e-03  1.0615832566609306e-08  3.3234788907390575e-32  6.5320637771160304e-10  1.8042352202396071e-14  8.5825237601214438e-23  2.2801461035859466e-24  4.1684287682706082e-21  1.8444484936616370e-20  5.3693846616620553e-33  1.3813704678334234e-23  2.8138340203312687e-28  5.1940097699201517e-31  9.9260435419404773e-34  8.0177498924296094e-30  2.4275394230095214e-27  1.2254923365900577e-10  8.8379875371553144e-08  8.9362060692892922e-12  5.9354601470402890e-05  6.6400562674842708e-07  9.4380283246453144e-24  3.8605962695378898e-07  1.5523369520490781e-04  1.8159454509833368e-28  1.5575422009808278e-06  1.2812351757446888e-08  7.9026770945273360e-09  3.6652848686696380e-11  2.5756542689580481e-21  2.6669794897783873e-18  5.8085692605863141e-27  3.6394562010442527e-28  3.1570919103789750e-29  1.0082700786771701e-29  9.0334419009342475e-31  5.8567607377926731e-29  1.5225223089397482e-31  1.4813402127312573e-30  4.9444321096643656e-26  5.7270767588673909e-34  1.1565030372545204e-16  2.2733266546463067e-06  3.7997979071598251e-04  1.6849088212629176e-12  5.0058538644857326e-17  6.9376310741708372e-22  3.4156344825335876e-32  3.0732673130492853e-34  4.2796634940459166e-25  8.5589492663083314e-15  4.2767524565561632e-35  1.1527457558186800e-20  5.9773654349278279e-16  2.4340348723014283e-17  1.3955635780313360e-20  6.6714518671011808e-23  8.7431708586308536e-05  1.3520766107090172e-04  1.2700977548452946e-23  9.5731937565779217e-25  2.1234947640281307e-18  9.1069978477540733e-26  4.8562897442970937e-25  1.0384644156934390e-04  1.6015834932189730e-24  7.0319274008914167e-17  2.5225831111395667e-15  3.9092422458792575e-30  2.4973375432024073e-18  4.2566057242036758e-27  2.3572861525075656e-21  1.7143197481142623e-25  1.7187023593731265e-24  3.6937280424294093e-26  1.2011646167890949e-25  1.3191496275599102e-12  8.6961524741436541e-08  1.0108009717761652e-20  4.4869716640607024e-12  3.3307425225764409e-31  3.1761806870958491e-34  8.8510353372943219e-18  1.7209765525579524e-22  8.3238548236877480e-27  3.3545903871627092e-11  4.2501380979265866e-13  5.6463845015171429e-17  4.5594500099554484e-27  7.6796334072667119e-21  3.1472447382363420e-22  1.2498726651879240e-18  3.3901378140216754e-16  7.3645343127507888e-13  2.1309683222918523e-13  1.4050901384068607e-05  9.7560244678411817e-23  6.6943772673753146e-11  6.8860482945489537e-23  9.9581918821431306e-32  9.0124897309422300e-31  1.6472723765910708e-14  1.5896924049206857e-05  9.2787716684922464e-13  7.1197573632557343e-16  9.4070673590674215e-04  9.7118308786422385e-04  6.4600350814609925e-15  8.8785741719924186e-23  1.8292300697022991e-22  1.4462543918918801e-17  8.3009463952584105e-07  2.3427849655164879e-28  8.6017243760528411e-15  1.8823695378837382e-15  8.1343911356906117e-18  4.8396751050514931e-08  8.2003765464742708e-09  2.8450037236014088e-25  5.9154852409156460e-28  5.0017299497972921e-22  9.5335963324586543e-20  1.6692441304780847e-06  3.6904545791870548e-04  1.2730972939773001e-21  9.2151511659193678e-20  1.6388728665590937e-15  1.6744107468441073e-06  1.0817126994233536e-17  2.1661998580613503e-15  7.5478416668497205e-08  3.1496799655221761e-27  9.6787011972051246e-20  3.8831772792156100e-20  3.4521106634009315e-29  6.3013324447373692e-32  2.6658478713367077e-22  1.7309167444105018e-32  3.5824813014015727e-32  8.2813305015236215e-26  9.2457846860066303e-24  1.4298532902324921e-23  2.1976390162392789e-28  5.7858421752867713e-28  1.5565759502338938e-29  4.2946842444332688e-03  2.3320631402640036e-03  8.8508365838379962e-05  3.0870040399930440e-31  3.4887172892073230e-28  1.6663623328900948e-24  1.8479230163332823e-04  4.4661103181461478e-21  4.7825574585435309e-09  7.2767441741475357e-11  5.0019094352085164e-12  2.6105163647030356e-21  2.0170522599603385e-19  2.2717189367617876e-09  1.5512903412411596e-20  1.2232537626513019e-24  2.1631068003399069e-30  1.1983905029546391e-29  1.5653510905856741e-34  9.9065814986250755e-05  2.8054061888155604e-19  1.9769260217287107e-19  2.8263638378881201e-15  4.4698824089672098e-27  2.1014231476559346e-17  4.2914663256335174e-22  3.2234288495177301e-06  3.6728536995507718e-16  7.7599577521304165e-18  4.1238351763579737e-26  2.7624482198675370e-09  6.0468272926639969e-26  7.0966937744403092e-24  2.7626701213522162e-09  6.4966074872499929e-29  2.4748479996306934e-05  1.5224640596120644e-10  1.2232522982557223e-26  2.7297323484147619e-27  3.2523114239048360e-24  6.9235859891202791e-28  2.5948108891442012e-13  1.3069189252487702e-11  5.4600351552166029e-30  8.5481794945322111e-27  2.8997240850096353e-09  5.6615118142079810e-20  5.0541654217571518e-17  1.3949784757281478e-28  2.1778987175008384e-22  1.1393886561192488e-30  3.9766214200026406e-25  8.3229532863151576e-15  1.0176093928562846e-27  5.2446811519213019e-12  2.6712451598834809e-05  3.4909117107973219e-04  3.8514823241742675e-04  1.7540749475541381e-18  8.3104422005002751e-16  7.9344858807025082e-10  1.7373157476391012e-29  3.1767118378160660e-29  1.6747945351741654e-28  2.8977520247151691e-28  8.6257416363492887e-37  5.1862900098987132e-24  2.0495516694799760e-25  1.7098224766919002e-13  6.5143341665576127e-34  1.5067778354944458e-17  1.3114466032125014e-26  6.2399011703283924e-22  7.8074671197621629e-20  5.5018407670158671e-15  1.5559428220448473e-13  4.2439938161084270e-04  3.5234059100063879e-31  2.2308837250136227e-19  7.1753262579181441e-11  3.7168388515796212e-11  2.3912208535838706e-29  5.5766800400379963e-07  1.8767984542040724e-07  4.7123777226805908e-07  5.8595171184542199e-09  2.1648250626289426e-22  9.8781766826222924e-12  2.9678974529288006e-18  9.4421112619626556e-16  7.0893936529276713e-21  6.5894770835506260e-23  5.3444239856641969e-27  2.0940766974459440e-14  3.5831688394820820e-12  1.3185478545172432e-05  1.5299678857894225e-24  9.1543416429919110e-07  2.4559508162449476e-08  7.3180502272823000e-30  7.6565914229783761e-17  2.7262520844406018e-19  2.5189453026215002e-29  3.1721048729714723e-13  3.5077923473581901e-04  7.7489148196938820e-08  8.7240432182182937e-22  3.0344014435201926e-24  1.1401866670286517e-16  2.3587539637260376e-24  4.0422411383851351e-29  3.9713951062521194e-14  4.5470331854816613e-06  3.1518149335715674e-32  1.3819647695581150e-10  3.6607142806944409e-11  1.8286848343749882e-10  2.9867826424153525e-28  1.3802554767626477e-16  3.8357765928544586e-14  1.3032146098533289e-20  1.0793086450865775e-04  1.9070839424492114e-08  1.2984369066440036e-29  3.6117075764765831e-13  2.5545503069146354e-22  5.3368489431026661e-25  4.3452944669951945e-27  1.3785851377529971e-11  7.1899599159428209e-10  1.0029374756732461e-18  2.4706542432713273e-22  1.7255923571613567e-25  1.7121102831413235e-27  5.0865014159895723e-08  1.8052345292712297e-15  7.5005809416757329e-28  6.5929490627314374e-26  3.6304531409425908e-26  7.5208911227529841e-14  6.1072653145611047e-21  2.5125547247844930e-16  2.3908064513926226e-24  3.8291743108504190e-08  1.6498057550593716e-28  3.6855798184422453e-17  3.7259745396279799e-10  2.2380425815042737e-22  1.3176323509825358e-35  2.8592742506236534e-07  4.5700307996646213e-21  1.8355222930201014e-13  2.4296034684438461e-09  9.0626769030512327e-30  1.3377161752107688e-17  7.0453499012469486e-09  2.7930782753287340e-26  3.1772227132806046e-32  1.7927477285960781e-26  4.0437575786776698e-29  1.7701354936906062e-08  4.0071711590896331e-05  9.9886250761298784e-14  4.8692105670046822e-06  3.1980802434762612e-20  2.9289972243145187e-16  7.0275914249763123e-11  2.4659381197621307e-27  8.6335592175451816e-27  9.7080776869494421e-12  3.2048938810081798e-25  5.2583045455215912e-07  9.2728340051144523e-17  9.5349946397980950e-05  8.0555480673656652e-25  2.1482772962649037e-06  3.1953799056125110e-07  5.4895669373424458e-12  9.0773935335856817e-14  1.2813948257918682e-14  1.5868147379580868e-19  3.1460385057985725e-20  1.1465105273700428e-17  1.5963471322413006e-05  2.5344929389150196e-30  5.2875405057756145e-31  9.5661380392532814e-33  5.8693913578440935e-26  1.4376295676031777e-09  4.5333667136941191e-31  5.5178056021615924e-06  2.0093155527350230e-11  4.3991135372817514e-10  1.9786858909054219e-23  1.3505040708482880e-13  1.6152831489681273e-15  2.8234831775392945e-26  3.5243591514372143e-15  2.4867952719804467e-31  1.2630001228338210e-28  1.7648936405191233e-21  2.0885291378047787e-28  6.0792916488619663e-20  5.4501937342319779e-30  3.8274578028238821e-23  6.9843465432040613e-17  1.9233037950636227e-12  3.9072504430596012e-06  1.5956254748732094e-33  5.8857884721774583e-32  1.5910365034394144e-27  3.0610226989411911e-10  6.7855097016327272e-19  3.4900638264414568e-18  2.4106933887339261e-19  8.7699920390315868e-33  5.7045457775854630e-09  4.9016733055469697e-24  2.8778314747852879e-08  7.3910537887841506e-08  3.0485999348736942e-22  2.9435690889903941e-18  4.7715517016284752e-21  1.6851877718160959e-28  3.4781971009811942e-28  2.7501794999121036e-12  9.2179330140766685e-08  5.5864256113994123e-14  5.5388007253278561e-28  2.6443543274695158e-24  4.3656496624689973e-19  5.3917982500610421e-19  1.0830653816207992e-19  8.6472178723050108e-24  4.9585867914537784e-22  7.5590174263999431e-28  2.4124247832317728e-25  1.0566352436685436e-13  7.3951349799079257e-32  9.2448926994655748e-24  6.7579218715807722e-24  1.0373297848286222e-21  5.7486914126251777e-32  1.3470685755803164e-30  3.3972459093395924e-31  1.8431288669727671e-33  1.0172861337658874e-23  1.6587839610728125e-26  1.2441038823266373e-08  1.3253959893844606e-08  5.6031572724387203e-17  7.9033673129936001e-28  1.9170491735835452e-30  1.4624958131100725e-18  2.7821231886436341e-34  1.6510278097365632e-32  8.2224202060650863e-13  6.3122190937957646e-14  5.8969050042578098e-31  8.2675454519840536e-25  3.6748826642918904e-17  7.8479417695040801e-08  5.1613171821013735e-25  1.0958583791661788e-25  9.6448207855254205e-30  1.7970818614751576e-03  1.6425355867478856e-03  8.3410934529204277e-04  1.6166986934670466e-19  1.2190150180671213e-32  1.7847891222979619e-21  1.1306586224165076e-06  9.9412169921831092e-31  5.4501266024674218e-27  7.7104924710380755e-18  3.1476694986377413e-18  8.6218294404458925e-25  1.0063328351025766e-35  1.0207622845957016e-18  1.1392795732306616e-29  1.8683813510410807e-33  6.1001821751542658e-06  1.0235783260312752e-13  1.9739593600444330e-18  9.3857556068162965e-27  9.8036399003915205e-30  2.0068164104427125e-17  6.0857637132025918e-24  4.9507278025347926e-06  7.7494715768499125e-16  1.0300712309619932e-33  1.4041386150857622e-14  1.8155670139433687e-07  1.3114628481025840e-11  7.1412646564232735e-22  1.2346918362317108e-10  1.4764697465989644e-12  1.1671430996868244e-09  4.3264169844400859e-27  2.2464877725905546e-20  6.0842354429362598e-04  5.4363607897305532e-12  1.2442698666774558e-05  3.5390732477717931e-07  1.9190088658801507e-06  1.9125727128464098e-04  8.4484122642017364e-05  2.7651252380475625e-29  1.2344709756073342e-30  1.3781412476138398e-15  4.2784371141362016e-14  1.9698571406122783e-13  8.4899502020981956e-13  2.4925257159246353e-03  1.3579061183693213e-23  2.0580753132214782e-27  3.7394598697510505e-11  1.6240385590435154e-29  7.2764083561997734e-29  7.7899202838436209e-32  3.5697643040046708e-22  2.2691501530488749e-31  1.1831164192419040e-09  3.4655469221114280e-27  3.8403758092925206e-14  3.0904448187010348e-26  8.7405565722012355e-27  1.8346118013031405e-06  9.9931178484973494e-06  9.8911462577966137e-29  1.8543388806649595e-15  6.0426363783921297e-34  2.3912123214734249e-03  2.9681319011898418e-23  4.8893643466522584e-33  7.4028444738747465e-06  3.7687498998428328e-06  1.4088914042217791e-17  3.3348132202589076e-25  2.0214163877874624e-15  7.6555947338915440e-10  3.6117646628871607e-33  1.7625387417960419e-05  4.3214758777947912e-29  1.0057475120813514e-25  3.5275220664729793e-10  1.1888916445223581e-24  4.3615793463212089e-04  1.2426475992596240e-16  2.7982596612383089e-23  1.2448927605676842e-21  6.7208264697268068e-19  1.3174671193784502e-28  3.3648749894630990e-21  2.7064974734414574e-19  1.0771383944152427e-11  2.3812305650766721e-20  2.8875143390546620e-23  3.0378317134833835e-28  1.9150631106031431e-29  2.0263022449881623e-23  1.1301479911362392e-10  6.7486012416456183e-29  2.3102986864312297e-30  2.9052662295534579e-13  2.6114488860831467e-36  4.8239584375860930e-29  1.1866249814574986e-34  1.4162383988053154e-28  1.0651950763745283e-29  1.2709265671958417e-29  9.1750520635452098e-16  2.9186471372138813e-29  1.1243729059842618e-31  1.8879272368331879e-22  5.4832328729169989e-20  1.6971924812569952e-30  1.1591345704544303e-30  5.0405347709005594e-31  4.0805017398714028e-08  8.8566498398425302e-10  1.6355571066257708e-11  4.7151128891810851e-29  2.7012285322136467e-05  1.7249056377842983e-09  9.5616967055646004e-25  1.1622051402763096e-20  7.0072931038850068e-30  3.5818899317615029e-06  6.1313754575660068e-26  6.2101142450143455e-34  9.1990484598131348e-07  1.1744770633797576e-17  6.8569937904307461e-04  5.7585910322253519e-04  4.0824190836907750e-32  4.0428925687195602e-36  1.5218566414483965e-37  1.0914100265434610e-37  1.2429024969297292e-13  2.2907833049264219e-30  1.9283232480528590e-04  1.2870005457367173e-32  9.9679899975953640e-35  4.8874419572419695e-34  3.2764865100390868e-21  6.5424282397602452e-25  5.5250282254351839e-16  6.4022526898515715e-28  1.4608049610183252e-14  4.0726401505803467e-28  6.4159732610797528e-05  4.9765720152211704e-05  2.6421206450832359e-04  4.5209004456613744e-29  4.4202087953600054e-06  1.0498201023567452e-07  1.3073418671169306e-04  8.8508971401753770e-22  8.6297796198207825e-11  2.6748239215142825e-09  2.2742591272898257e-22  1.2030333497706951e-13  1.3106987358999813e-14  1.1310833571150320e-15  1.0713617489681017e-11  4.8790867572798689e-05  3.8341239585785482e-04  1.4208492104791269e-26  1.3686212963055596e-22  2.5830225881201166e-20  1.8877191542729200e-25  6.7866520147501819e-06  1.1498220580412692e-29  1.9059805865540763e-14  5.1012915787422366e-22  1.8500462877115092e-11  6.1523585482093808e-07  5.8272323956721736e-17  7.8925545197576558e-21  1.2341616655084870e-14  1.4267610628673598e-08  3.7289571710892599e-10  1.9687133668715241e-23  2.1491386056101339e-27  1.1799978062645902e-06  3.5301947528961485e-25  1.0089408615922037e-26  1.6949022259307299e-13  7.0862714083219289e-18  4.7679899743144015e-07  1.2432295426165884e-19  3.5259970139120976e-05  2.6821434525136586e-28  5.6987262345357324e-16  1.0518285823038512e-16  9.6550952780969382e-26  2.0051892637941602e-22  1.4742043116482795e-22  1.0773918321188444e-24  8.8632259943318449e-24  2.0294708073832420e-23  1.4372224532360469e-12  1.0840319443972617e-22  9.5099914212594618e-18  3.8498537321807972e-12  2.6881269915813176e-19  4.9359988352390699e-20  4.4852947164865472e-28  6.5410084287911145e-15  5.3208647500108464e-20  4.6162373728478921e-21  1.5685909754549716e-22  1.4059030458587282e-21  4.5726167016712006e-15  2.6601790732469396e-15  5.9269393557656616e-17  8.2135347140851639e-11  4.7782391779795042e-28  2.4848507861520696e-25  8.0252132854314852e-26  1.1132132450712379e-24  2.1534595102047176e-24  1.2487131001886603e-25  2.5856159783605637e-28  2.1061470535575723e-18  1.7039152901591576e-16  1.0816300745027668e-27  1.2245897436981626e-29  4.7716382638537625e-26  2.2795361274163918e-17  1.2076888639417340e-12  3.6659154475067642e-10  3.6567785108155020e-18  8.5488203058898143e-26  4.0339713343116698e-07  3.6904874488959065e-15  1.5001212020728844e-29  1.3608109146993441e-05  7.1273218507641905e-24  1.3457917865276233e-29  9.4358906716564175e-30  7.4764610217288899e-33  5.5596167024454520e-25  5.8328736636575149e-29  9.5167958150584963e-13  2.8303412615644356e-18  6.5582576139167187e-15  8.9028520862359286e-11  1.7159276789007583e-24  4.3544191376888788e-26  2.9017447521421127e-18  6.8318205976984319e-31  5.1732888400487686e-11  1.1653421503023662e-16  1.4287776538532031e-12  1.0529331101552644e-11  9.1190811314833862e-26  2.2792615060841426e-28  3.8134162927400283e-23  2.6716269037357741e-29  1.5970157423694214e-22  1.8028814577481033e-30  3.4295971932901463e-33  3.2162884387029067e-23  7.6080149489097361e-19  2.8973853743623722e-34  2.6013803277680791e-27  2.4274228385525339e-23  1.6420564560185779e-26  4.6117470487171208e-25  5.5866724891026580e-24  1.3422860535663588e-26  5.9945739174610