<?xml version="1.0"?>
<VTKFile type="UnstructuredGrid"  version="0.1"  >
<UnstructuredGrid>
<Piece  NumberOfPoints="6486" NumberOfCells="12696">
<Points>
<DataArray  type="Float64"  NumberOfComponents="3"  format="ascii">0 2.5 0  0 0 0  2.5 0 0  2.5 2.5 0  1.25 0 0  2.5 1.25 0  1.25 2.5 0  0 1.25 0  1.25 1.25 0  0 0.625 0  0.625 0 0  0.625 2.5 0  0 1.875 0  2.5 0.625 0  1.875 0 0  2.5 1.875 0  1.875 2.5 0  1.770833333333333 0.7291666666666666 0  0.7291666666666666 1.770833333333333 0  0.9375 0.625 0  1.875 1.5625 0  0.642361111111111 1.163194444444444 0  1.341594827586207 1.883979885057471 0  0.46875 0.46875 0  2.03125 2.03125 0  0.3626104797979798 1.513178661616162 0  1.381740196078431 0.4564950980392157 0  0.9375 2.172619047619047 0  2.172619047619047 0.9375 0  2.096354166666667 0.4036458333333332 0  0.4036458333333333 2.096354166666667 0  1.684027777777778 1.163194444444444 0  0.3418803418803419 0.8693910256410255 0  1.642742622813391 2.162164207604464 0  1.275619849389031 0.8465650753054845 0  0.9136284722222221 1.434461805555556 0  1.732437511238546 0.3406962303960658 0  0.9714402568595876 1.029779313093998 0  1.52281746031746 1.485615079365079 0  2.1875 1.71875 0  1.06819722569879 0.2997236128493951 0  2.136114211309524 1.303478422619048 0  0.3125 0 0  0 0.3125 0  2.5 2.1875 0  2.1875 2.5 0  0.3200021620376328 1.192323085056694 0  0.6738456129277992 0.8304377375553881 0  1.757891808928991 1.861952730357003 0  1.5625 0 0  0.9375 0 0  0.3125 2.5 0  2.1875 0 0  2.5 0.9375 0  0 0.9375 0  0 1.5625 0  0.9375 2.5 0  2.5 0.3125 0  0 2.1875 0  1.5625 2.5 0  2.5 1.5625 0  0.7448220909826522 0.3003573636608841 0  1.027298850574712 1.871151477832512 0  1.331260495098891 2.197262878816185 0  1.207917681892289 1.582765010956622 0  0.4339993447432606 1.801186844743261 0  0.6337298768939392 1.443093039772727 0  2.049851190476191 0.6826636904761904 0  0.6584821428571428 2.219122023809524 0  1.89575676467455 0.9798457973793544 0  1.437570562095628 1.059380588255917 0  1.502090052505845 0.6987070896496241 0  0.2040860661083546 1.705323965099331 0  0.2083333333333333 0.46875 0  0.5070952039991439 0.2211150679997147 0  0.6916302856529919 0.5813591430410241 0  2.265625 1.953125 0  2.2265625 2.2265625 0  1.886424081252096 2.243391360417365 0  1.40625 0.202164758520858 0  0.2269345238095238 0.2269345238095238 0  1.152730869673694 0.5225850378741401 0  1.885631899587912 1.312095130148776 0  1.614808884009367 0.9049784971014416 0  1.890095442220658 0.5126535558463003 0  2.323168682795699 0.46875 0  2.268811725689575 0.2304742875213018 0  0.6002389442105756 1.967426444210576 0  0.1768313172043011 2.03125 0  0.2311882743104251 2.269525712478698 0  2.03125 0.176831317204301 0  2.280262553344767 0.6954945504579233 0  1.979219539285994 1.809922269642997 0  2.336309523809524 1.09375 0  1.09375 2.336309523809524 0  0.9314042474388009 1.662973812215543 0  0.1634067999087722 1.40625 0  2.337090640094896 1.40625 0  1.141616997467638 2.069311773587991 0  0.46875 2.338939559681489 0  1.542440307908715 1.734944797244472 0  1.556713687786879 1.956977865354753 0  0.8264238995344066 1.975424467820646 0  1.466326331454725 1.275271369760862 0  1.655675324257095 0.5444159974393489 0  0.3385416666666666 0.6479255698005697 0  0 0.78125 0  0.5236073939200119 0.984090461540625 0  2.091665741047893 1.519793517904215 0  1.71875 2.5 0  0.5356538886262603 1.623137930505009 0  0 1.09375 0  0.1932884281517095 1.015625 0  0.8569313582417669 1.2198915584249 0  0.8876981284879677 0.8329884081524883 0  1.115618488474214 0.7219586973356271 0  1.186950366204949 1.043465130075318 0  2.057459118787237 1.110823087309335 0  1.830651283878689 2.049810069572418 0  1.689107969301489 1.367247437031697 0  0.4921048768039656 1.298643370653124 0  0.8213975694444444 2.336309523809524 0  2.03125 2.5 0  1.049729400480002 1.283723261332814 0  1.308101375801673 0.6489479469700392 0  2.5 2.34375 0  0.4968777175037714 0.7562964879736076 0  1.40625 2.5 0  1.501347663534097 2.307027627307738 0  1.602813712048603 0.1926218191360736 0  0.8393082906308107 0.463778306132633 0  1.682663349152719 1.598471865581041 0  0.7774174680851571 1.560004941327907 0  1.554204170364662 0.3898593897892066 0  1.842184459051087 0.186443880058197 0  1.358107417651776 1.696381759610015 0  1.18859291992392 1.77598670078022 0  0.1875331222687418 0.7609599743339348 0  1.339536743965101 1.422080365801479 0  0.7788179348750389 0.9955343414928611 0  0.9062978492805438 0.1919636509126373 0  1.256007360640958 0.3160320559396114 0  1.09375 0 0  1.174986727221844 0.1594990293443933 0  2.34375 1.796875 0  2.318026474511116 1.589177949022232 0  2.34375 2.5 0  1.672742954892153 2.332882724550692 0  0.2683637361947215 1.874801596909639 0  2.174770749820102 0.5581009131310781 0  1.443279522965991 0.8870068372898454 0  0.3385416666666667 0.3571428571428572 0  0.78125 0 0  2.060421048269335 2.314363248763811 0  1.088078737088509 0.8967352118723447 0  1.087825368444708 1.454931510884769 0  2.018308232129541 0.8548495425854904 0  1.943987311736842 0.3246298523011434 0  1.71875 0 0  1.85337849796276 1.144833312386208 0  2.3486328125 2.1044921875 0  1.407588788651747 2.042968789119587 0  2.336309523809524 0.865366648092144 0  2.34375 0 0  2.5 0.15625 0  0.15625 2.5 0  0 2.34375 0  0.1638044648294291 1.242263417405867 0  0.356216654757926 1.032569427322806 0  0.3188217956111817 1.355736727000647 0  0.5924956460852111 0.36112522004736 0  0.6594216488965849 0.1603472116132387 0  1.841804599497131 1.72214349266521 0  0.15625 0 0  0 0.15625 0  2.115898634821499 1.894570904464496 0  0.7821877980253907 0.7129993435924866 0  1.003820447087786 0.4516053462784233 0  0.477562948779147 1.138333049293613 0  0.719493678605015 1.305655360135975 0  0.9772457618587566 2.020350128938537 0  0.8764738248887107 1.826219722709673 0  1.254787875123819 2.339010653832026 0  2.343597354852534 1.249982759769001 0  0.78125 2.5 0  0.46875 2.5 0  2.5 1.40625 0  1.09375 2.5 0  2.5 0.78125 0  2.5 1.09375 0  2.03125 0 0  2.5 0.46875 0  1.40625 0 0  0.46875 0 0  0 0.46875 0  0 1.40625 0  0 1.71875 0  0 2.03125 0  2.5 1.71875 0  2.5 2.03125 0  2.005424054645407 1.653223486966518 0  0.1538730573856537 1.559850281736677 0  2.33984375 2.33984375 0  1.166539506212474 1.922878979538754 0  0.3914885633949916 1.65887232812171 0  0.5795503163042564 1.766243562569382 0  0.399533125920212 1.946786875081388 0  0.7866324979014098 2.127719094551316 0  0.3654683023546834 0.1495701132219454 0  0.1527388747131078 0.6116379440619215 0  2.013737577140188 1.391056634712135 0  1.17635437372994 2.213329084238133 0  1.737118141866284 1.010577140843115 0  2.200707118087222 1.164723314085963 0  1.697018908736685 1.993548551451517 0  0.5387621649009668 0.6070503962352419 0  2.032805785855952 0.5330427622570983 0  1.082699501358059 1.667818725183932 0  1.503819781540653 0.5468420196858188 0  2.015409142866072 2.175941657590429 0  1.752057611265444 0.869642097111018 0  0.612251684107783 2.356045720700959 0  1.902817102342857 0.6607642211999982 0  2.159616561739693 0.7867739969338844 0  0.5120038350106624 2.197302352398502 0  1.888200216011548 1.919501662489862 0  1.495909909726654 2.16028358757309 0  0.489139876703609 1.443203008943564 0  0.8819175670410521 0.3301172743913011 0  1.882591144370812 0.8155965192707721 0  1.133979796994841 1.172526771862882 0  2.206217447916667 2.084147135416667 0  2.20361328125 2.36279296875 0  1.395746985657004 1.556054166359645 0  1.704383111516207 1.734750450338683 0  0.9575737847222222 2.36274223823052 0  1.035150984253136 0.1302833343179028 0  1.383966125325753 0.7651479963479179 0  1.64003252158672 0.6824316405528895 0  2.22550785055421 1.487078576356817 0  1.760964431499756 1.48495222505201 0  1.276460980673788 2.004207003584658 0  0.1341477688427096 1.828777507920502 0  1.542261434180652 1.155296658359034 0  1.334627911613854 0.9696897472490321 0  1.30794231473696 1.119420615785191 0  0.7028260459857245 0.4438906910721139 0  1.625757433094055 1.84268057552138 0  0.9818707849053143 1.165603626132254 0  2.0086489901463 1.243134585689553 0  1.934584460420609 2.374094051915812 0  1.798434376789567 2.38671361912528 0  1.206314791201715 1.382064292497919 0  0.6333752893366955 0.7023738550008095 0  0.7796219811205605 1.42573253164258 0  1.564399711917382 1.026040828857629 0  0.3385416666666666 0.4889012896825397 0  0.1041666666666667 0.390625 0  0.989112246382566 1.543537365516289 0  2.025724425454636 0.9846960595520872 0  0.6602885475034063 2.086117390485779 0  1.607130551925032 1.267198646640915 0  0.1317864544877056 0.8896173683400176 0  1.755387840017567 2.230364320056445 0  1.301540702984401 0.1216289692748247 0  1.433170657577442 0.3331052752740999 0  1.500459610550388 0.113513924782439 0  0.6494291520606965 1.029586599619295 0  1.010146149868299 0.794897284196169 0  0.3700844198238017 2.235390157870766 0  0.3360891767780704 2.36656279435396 0  1.876856241037701 1.437150669863757 0  1.778674102957329 1.245979347269706 0  0.5472829890977179 0.1005517127039925 0  0.4669074189005698 0.3416784232954367 0  1.472765289289269 1.850899166481903 0  1.555853593327178 1.608452097912802 0  0.6708955559113426 1.646561631116984 0  0.8164699620322933 0.5924479455478063 0  0.3167738989468366 1.758696809749795 0  0.2788007305565096 1.605499483471246 0  0.7821720982350511 0.181524936294752 0  1.376812251214195 2.313340247908297 0  1.785652202614777 0.5962261755537186 0  1.761467296310972 0.4679567244718574 0  2.2265625 1.8359375 0  2.3828125 1.9140625 0  0.5279531607054191 2.071552361614785 0  2.397573269551114 0.234375 0  2.383578172599618 0.3589298466020009 0  0.1024267304488855 2.265625 0  0.1164218274003825 2.141070153397999 0  0.2696857594953064 2.135405441512016 0  2.164961300137334 0.1375322943529536 0  2.137757548369486 0.2724194778647587 0  2.238873711826398 0.3626419179496562 0  0.1001414910226386 0.234375 0  0.2176339285714286 0.3478422619047619 0  0.2503620791333544 0.1061694061057066 0  2.336445461915368 0.1250451055247424 0  0.2154004640409726 2.3918124
[...]
<PointData  Scalars="f_16-0"> 
<DataArray  type="Float64"  Name="f_16-0"  format="ascii">3.5929538704911891e-05  2.0088664444844839e-05  3.8487630175113518e-07  7.4068663416484536e-06  1.6978008369244773e-05  2.1561921222908303e-06  4.2973399226930658e-05  9.7170099018249940e-04  1.1602205366320027e-03  1.0032092056978640e-03  2.5299860873205061e-05  4.0496395219980569e-05  4.8886448942028228e-04  2.4425550493607251e-07  5.6796966408883221e-06  2.1257588641168574e-05  4.8511288278340418e-05  1.0799870996495585e-05  6.4188337769746358e-04  3.9476674351499768e-04  3.8409922653322983e-04  1.2006987194987399e-03  6.7741130295720755e-04  1.6379906685270156e-03  2.1642274233689055e-04  8.7163515550109177e-04  1.7030788185223744e-05  2.0002657607993558e-04  3.1727690300922792e-06  2.3212876309500029e-06  2.5570487249924401e-04  2.2446523477226792e-04  1.1264249343023399e-03  2.7871640411342722e-04  2.7473188933586055e-04  1.1566579321876356e-03  7.9141324266618053e-06  1.3632658408780727e-03  9.2908768753346830e-04  1.1537989273641216e-04  2.2081465436718796e-05  4.1092100570375567e-05  2.6131542171882450e-05  9.2735995869814810e-04  1.8960302942580077e-05  2.4242076441436215e-05  9.8594698801505510e-04  1.6448030377934596e-03  5.6465313159576632e-04  1.1307881896010442e-05  2.1450722240572483e-05  3.4661956314969602e-05  1.7338262165598172e-06  3.2865685205668095e-07  9.9786565280457679e-04  8.3727302395971369e-04  3.8631177496631789e-05  2.9214132984693006e-07  1.7042731935516022e-04  4.9126391751993811e-05  1.1132240453058782e-05  6.1653042053684998e-05  5.5212411751851432e-04  2.0473761502851071e-04  1.1379005107838870e-03  6.0800412709165251e-04  9.4227650269663337e-04  2.9904577777096853e-06  1.5596295944613254e-04  2.3590819618233580e-05  3.9010210353178902e-04  3.1073620748467723e-05  7.1183710386759724e-04  1.8145059577575912e-03  1.2851638711634981e-04  1.0103247580315481e-03  8.2443464775558477e-05  6.2834466422636166e-05  1.5472854035762179e-04  1.4397810189362705e-05  1.9533282214458901e-03  4.6855845946218943e-05  1.7063789892474095e-04  7.1934518015094638e-05  5.1105622954427170e-06  6.9028093976317889e-07  1.0479199507322497e-06  4.0619722397355814e-04  3.1253010734126705e-04  1.1627407980730830e-04  3.1960762210477288e-06  9.1040175126676710e-07  3.1779828235786153e-04  2.5225151054372321e-06  9.3471125469735987e-05  8.2520655122184897e-04  9.2866110975911933e-04  1.7337972670037843e-05  3.1432480239900195e-04  8.6948368854645918e-05  8.8206906291187718e-04  5.6777148903117765e-04  4.0467869860971007e-04  7.3812876038078796e-04  1.0661685543063487e-05  1.5786875623762006e-03  1.0018759524499351e-03  1.2653460300366586e-03  1.2390530521055570e-04  5.3543480663642737e-05  7.8689848079147051e-04  9.8973450908947883e-04  9.9776435591650042e-04  1.3781291956315011e-03  1.1673605461165629e-03  2.7810185840980737e-04  9.0361975314659244e-04  2.1329096571868763e-05  3.3219963018971582e-04  4.6934586225682028e-04  9.8377093836506894e-04  9.0628968514695025e-05  3.8818419126789617e-05  1.3787679701139398e-03  5.4932782766175034e-05  1.2838161519013679e-05  1.6628710541885252e-03  4.4892084481303182e-05  1.3256621663067217e-04  1.0547250231214556e-05  1.9210087580160743e-04  7.1431267839423937e-04  8.7717046425801423e-04  1.1978896639381052e-05  5.8028542206289164e-06  1.0094936850125217e-03  7.9478021866753615e-04  1.0456221922242417e-03  1.1664473125677908e-03  1.5442995485198648e-03  2.2870406950794907e-05  1.7689417852232225e-05  1.9291020289434475e-05  1.8485772486610130e-05  5.0145321781333684e-05  4.0193725977990234e-05  1.4032898949283150e-05  1.2529043467353614e-04  5.1443449217080024e-04  1.5185424091413189e-06  1.5203567347331999e-04  1.9759552315647320e-03  2.3352577482036646e-05  7.8890489666410255e-05  7.7245124411811240e-04  1.2523784076602896e-03  5.3969983673695019e-06  4.2290039703746472e-06  8.4710795273707616e-06  8.6178869337849456e-05  4.6661789567911757e-05  4.1184256086757492e-04  7.6692970534428648e-07  8.5842546477567079e-07  3.5002355300689154e-07  3.5561481240762600e-05  7.3741288388388932e-05  9.7129723147606540e-04  1.0377048010225191e-03  9.4417916303951176e-04  3.7892859181059391e-04  2.9740585152456813e-05  4.9321013928449974e-04  1.8191121734056872e-05  1.9103032621270902e-04  1.7705811573027078e-04  1.1395644747458084e-03  6.3258994168886995e-05  1.0614694111088976e-03  1.1255263398935033e-03  3.5895125526912998e-04  5.8758924803944956e-04  1.0004184651966406e-04  6.5731393502934889e-06  3.8929389947471956e-05  3.5779718703333816e-05  5.3569639872565354e-06  3.9905085040921806e-05  2.6244112136296765e-07  7.2009293975453494e-07  3.4215341957027094e-06  2.5436431137416566e-07  1.4046675271314875e-05  2.7141508684642731e-05  9.9902892856877060e-04  9.2955520696747862e-04  6.9194693441743430e-04  3.2182613851571625e-04  1.7440743922457750e-05  2.1590554690665987e-05  2.5309627676576630e-04  8.3894996621712093e-04  2.6411404417653806e-05  5.2564455278600569e-04  7.6685158799446543e-04  6.4117665588731671e-04  4.2923763897461010e-04  2.3823723061943523e-04  1.3055724255104129e-04  1.0928767839994951e-03  1.2384180632127426e-04  1.8130689491971608e-04  7.2560738204550734e-05  1.0585639803778103e-05  4.8069116137482290e-04  1.7595721482395591e-03  3.0551291703120524e-06  9.2182917969259120e-04  1.5359954828578965e-05  1.4918197323092347e-04  2.4792875166521916e-05  7.9281336320436821e-05  5.4298218147527944e-06  1.9896972458371848e-06  1.7328251475094469e-04  3.8928486697498670e-04  2.6828989412044371e-04  9.1283820856784270e-04  4.2419270497414413e-05  8.6986336905862248e-06  1.2676490595582427e-03  9.6192228094400684e-05  3.9256283198306404e-05  1.1110201342444225e-03  6.8944304813326547e-04  7.7531508237143248e-05  2.0418444034850057e-05  8.9988254601637685e-05  1.5051313152641459e-05  5.3115180764950496e-05  4.9931656951876079e-04  4.3994634217138783e-04  5.7215772138712452e-04  3.8525441255609386e-04  3.9119156382422807e-04  7.7427889091829529e-04  4.0766652475784226e-04  7.1021585168152429e-04  1.4327921394405850e-03  6.7077944211569359e-05  8.0622247507042668e-05  8.7872415617084763e-05  1.2948447460339690e-03  1.6435438640071461e-03  1.0374972788058884e-03  1.9242316189028186e-04  2.1748564814464736e-03  1.3929619923059391e-03  1.0514328846610362e-03  1.0637542542867151e-05  2.7013468711501137e-04  4.6205747127148146e-04  1.0028289969296444e-03  1.9815768060165305e-04  1.6203564355593589e-05  1.4320076428975341e-05  1.2478242111224696e-05  1.3972656109803544e-03  6.9202034965769115e-04  1.4383324706994683e-04  7.0035103086285631e-05  2.7520141123066073e-04  2.1394717696962486e-04  2.9171595649571932e-05  8.0552615782683720e-04  7.5962835712293283e-04  9.1569835544955895e-04  7.6428061976840705e-04  6.2289115468865195e-04  6.5671421045463817e-04  8.0962660426190346e-04  2.6171512747740927e-05  1.1884567141530064e-04  7.7284444817701862e-06  7.5613377445298331e-06  1.0609275410637328e-04  4.1628792806172242e-05  2.8811518524425036e-04  4.9696939734926431e-07  5.2299084999415162e-07  1.2005609067721785e-04  2.1646579884430903e-04  2.1933418684062892e-04  1.8328538902791169e-06  2.0141621287015728e-06  1.2300933324099816e-06  4.3737410119344651e-03  2.7425155199702848e-03  1.1153466731039773e-04  7.7292818534743651e-07  6.0044253353241743e-05  1.6650141586033575e-04  2.0667481793140694e-04  8.2537582421182801e-06  1.6510562816414976e-04  2.3318118926535845e-05  2.8319719713981681e-05  3.7277282401894276e-04  6.9502761139605496e-04  1.4034397292788353e-03  4.1734454535837580e-04  4.6067134168454912e-06  5.2004632323975596e-07  4.8951885461116585e-07  2.9989519874933820e-05  1.0074354776332926e-03  4.8709183981469049e-04  4.9421230794410203e-04  5.5424877681569156e-05  9.5798376748837361e-05  7.5052398776478859e-04  5.9100030902240234e-06  1.3503013781443159e-03  7.4823735029199724e-04  6.8862960777536059e-04  1.6751827015466841e-06  2.2613049089851879e-05  4.4244094256351351e-06  2.6793711986238585e-04  9.8646281259815328e-04  8.4283239085387853e-07  1.0073248152010822e-03  1.0561951185371892e-03  2.0628988508025875e-04  2.8209271580383229e-04  3.6905671764984969e-06  6.1105461875773229e-05  9.0411867993980539e-04  9.5543406210938449e-04  1.3064503846027505e-05  2.1047643563586737e-05  1.5004950534381317e-03  9.8434073386438067e-06  2.5362018199172193e-05  2.2716168238799732e-04  6.8810621501883549e-06  2.3336136910363161e-05  4.0852755981659504e-04  6.5127459072526317e-04  6.2371157208397534e-05  1.3295441048480911e-03  1.2016121439391055e-03  1.9730903840681096e-03  1.5577919807036799e-03  9.8451237974021355e-06  7.7449880387075619e-04  9.8158973153825721e-04  5.7903253087974097e-06  2.0930361094605472e-06  6.2916880451664448e-05  5.6683840981961945e-05  1.3068859414831324e-05  2.3452668266280845e-04  6.8982312761479907e-05  2.2687992107824650e-05  4.1906733493559742e-05  1.2171600644072314e-05  3.3478939486925090e-04  2.9736606457912511e-04  4.6787821206537012e-04  1.0462941206462999e-03  8.9581500870882338e-04  6.1133180341342325e-04  1.0989598204927223e-04  1.0091848532405266e-03  1.2897805132618023e-03  5.8679784006736605e-04  6.7517627515916980e-05  1.5212207243137502e-03  8.2632455655481756e-04  1.4357952641254610e-03  1.1355405634464709e-03  4.8098007175519310e-06  1.2022447632587638e-03  7.2979568657430066e-04  1.1004596211023974e-03  4.3049972786363399e-04  2.5390115991074871e-04  1.6533022755670773e-06  9.7734747653876694e-04  2.0381884807513448e-05  9.3653585710616420e-05  1.5231955986677175e-04  1.0229629629500332e-03  1.4392499352428062e-03  1.3094335145624869e-04  9.9462506682033080e-04  9.9131659092944660e-06  5.8673129996621925e-05  1.2976801957173673e-03  1.0873209288662967e-03  9.9599925964310174e-04  2.9848103569784144e-05  7.9462689960732881e-06  1.1951499367466119e-03  2.8570185367437260e-05  9.2693219847561381e-05  8.4609545243376444e-04  1.6005840035699221e-03  5.4449213725254446e-07  9.2244332001347522e-05  1.7139814865003620e-04  3.9281617310205834e-04  1.4596647861407658e-06  7.0934206084066081e-04  8.4547318586225182e-04  3.0849258968223647e-04  1.8113418847392796e-03  1.1881932989396900e-03  3.7530595937982923e-05  1.3149497528851545e-03  5.8754154525095758e-04  4.4339262118636442e-04  1.9840623725338091e-04  9.7044450700230764e-04  9.9270938368105615e-04  5.3773119043385689e-04  5.9664225611480383e-04  4.5230460906955033e-04  3.0116130871639288e-04  2.4247380508973143e-05  1.2462237768193457e-03  5.6051381004476872e-05  1.0822381333393451e-04  3.0430514544251889e-06  1.7068380979232977e-05  3.6266297564099256e-04  1.4375269175860314e-05  4.0224651399273638e-04  2.4227590424098281e-05  9.4125072842427889e-07  6.8019166895190832e-04  1.0832614058386839e-03  6.3750171479708357e-06  2.2469913130493583e-05  1.5937908581227511e-03  8.1809759234408280e-04  3.9362668953771032e-05  2.4525643773490127e-05  1.2451928621319647e-06  9.6995815267163568e-04  9.8977083735551311e-04  1.8343174495894478e-04  4.9736730813601353e-05  1.5014732392537329e-06  3.7909310747866138e-05  4.1881210243293726e-04  1.4982383758284147e-03  1.3340713872222576e-03  1.0041417381944885e-03  9.0652578955663290e-04  1.4442390133680070e-05  9.6564377771657947e-04  2.4267270600414058e-06  2.7889258623094594e-06  9.4183645139292265e-04  1.2324059104112595e-04  1.1501006187964716e-03  1.2034471982162380e-05  1.1941806639160898e-03  4.3011480828965860e-06  1.3512044925000495e-04  2.7069659398658215e-04  1.9034694320938445e-05  1.6426581987233333e-05  1.5790490158753365e-05  8.4368973606189384e-04  6.6454902296049913e-04  1.1110122285534166e-03  5.0533411030327903e-05  3.4860977959980475e-05  1.1184448929804953e-04  6.6793439858158139e-05  1.1503056919465497e-04  1.0789642744296389e-03  5.1324153156051601e-05  4.9893038112803904e-04  1.9946351714403158e-05  1.2405368691953914e-03  2.2318075582191321e-04  9.0256676570330159e-04  1.4114266588461583e-05  1.6355823574745528e-04  1.4113360289816379e-04  2.7805891794793641e-07  2.7972296436288506e-05  9.6275323781594915e-05  2.2312082247419611e-04  4.6648938789372354e-04  1.4701349947066915e-04  3.7598694513012079e-06  2.2736622413770723e-04  1.0255028682978104e-03  2.7614159437627163e-05  2.4045265048132694e-07  4.0444883050409725e-07  5.9559097090940095e-05  2.1458760335242677e-05  5.6146492658557152e-04  6.1319210648635883e-04  3.1759394166932497e-05  6.0059727040662417e-05  3.2763369155093292e-05  3.0733551395427492e-04  1.5001241548514215e-04  1.1098938589919392e-03  4.5042994824205015e-05  5.9253938045264519e-04  3.8294717671150813e-04  5.2472074048468253e-05  5.8186106997754896e-05  1.9240640571965892e-05  3.1392196424917117e-05  9.1382576043628095e-04  8.7133434950315558e-07  1.6976562797314757e-04  5.0842622539929762e-04  1.1283107294480730e-04  5.2682194859788293e-05  3.8718631787086654e-04  3.2200749384491746e-04  1.6274657898196132e-04  2.2237903117487283e-06  1.7559429096573468e-05  2.5355424988468562e-07  4.9801245294304455e-06  3.2416301581306014e-06  1.0657984776994539e-05  3.1366014071748918e-05  6.7282106478837707e-05  2.9265334362407175e-05  3.7485502558724981e-07  2.2824296781235063e-04  2.0924194421023670e-06  9.9950196497092508e-04  1.0236418722197197e-03  1.0447492419809989e-04  1.8913006226409598e-04  7.8831079475208008e-05  3.1796750770810565e-04  2.9081129269449442e-05  6.2983791764707918e-05  2.3292067479732309e-04  2.6612798305308203e-04  8.0442130379348539e-07  1.7396021267712265e-04  6.9792051767852959e-04  6.6718265223179404e-05  3.3543721423868648e-04  1.0945438575066791e-04  1.2133168229118667e-06  2.0737303880195655e-03  2.4230737379089375e-03  1.7016893335576467e-03  6.0975082109238521e-04  4.9372554051902466e-07  5.6606904188590034e-04  1.0000786826820374e-03  3.9071163471145329e-07  8.6570073119032021e-05  1.2346611613621858e-05  1.0237864838008439e-05  2.9915643013411406e-04  1.9528392654557841e-05  1.0126407865301435e-03  1.3892429880435809e-04  3.2805705321854567e-05  1.0578283467969128e-03  8.6579950737922663e-04  9.7757811564019013e-04  1.1606793876801395e-05  4.6809395853190103e-07  6.4058563738466365e-04  5.9405128139468366e-04  4.2354313370982119e-05  2.6692050949567137e-05  2.1811370064613920e-05  1.2003574471846250e-03  1.0164094649174902e-03  1.0157461318720162e-03  7.8332346012042261e-04  9.6725733863785497e-04  6.5910642318309991e-04  4.0938123455190461e-05  3.2826633879086157e-05  1.5194944191723269e-05  7.0126777939470263e-04  9.4349731409504528e-04  1.9531823895002124e-04  2.6091943848943146e-05  4.7386427898519748e-05  9.5142486760157509e-04  2.8260685934567033e-04  1.1815812093688760e-06  4.5209346436088436e-07  1.2450310977865147e-03  1.1856985187814262e-03  5.1345374444741688e-04  9.1336105890008209e-04  2.7333407201831066e-03  5.8686651260013347e-04  5.2436278337794742e-06  2.0481196386311052e-05  1.2106383850874420e-04  1.0587138211506765e-06  6.9632958768916717e-05  5.2919194133920053e-04  1.0413186370425826e-04  5.4735977265853348e-04  2.2862237723682234e-04  6.3760817437697256e-05  1.4064419447412248e-04  9.5060741626166946e-05  1.9671209493055771e-05  2.8193164258922923e-05  1.9348533747714082e-04  1.5507406979224792e-05  3.9726724365120029e-05  2.4332504292438164e-03  2.2983637934735442e-04  3.5980770110160818e-07  1.2460190987639657e-03  1.5120406244625185e-03  5.3078796992451435e-05  1.8776085294822174e-04  8.5734802670688190e-04  2.7299599587899822e-05  4.5664828102290050e-05  4.0839167078620341e-05  1.4885642678222364e-06  3.0067351406123345e-06  2.1367129536059217e-05  1.1548699391574328e-05  1.8664850651908219e-03  7.3082730723176507e-04  2.1194455381946304e-04  3.1598100496877757e-04  5.6246002268641403e-04  2.2931156772704262e-04  8.2730268714746230e-06  8.5737493528262570e-04  1.4044465938477084e-03  8.2981754963465067e-04  2.0095309917812215e-04  1.0955368954538526e-05  3.5752138994130029e-06  2.3156962958551151e-04  9.7162215538902305e-04  6.4564787938759378e-05  1.7231631576327280e-05  1.8114604537010156e-05  1.8127639877115681e-05  3.9226388530327621e-05  3.1925772931667722e-05  5.0209107791871796e-05  3.6559645460302326e-05  4.2933478264771127e-05  7.7384333022326103e-04  4.0175973900036714e-05  1.4840166438316236e-05  6.8537438222558023e-06  9.9346882634806000e-06  1.2245441336465100e-06  3.3619665452284319e-06  8.0404258578509304e-06  9.9446861655754838e-04  9.8207825638134166e-04  9.5629564570738797e-04  4.1339740932226372e-05  1.0033058304445756e-03  2.2385115947425025e-05  4.5012089404938990e-06  4.1091840141008418e-04  3.4857031684188898e-05  2.2416625239901659e-05  1.1135596092936159e-04  3.1477033660752205e-07  2.6381650750517231e-05  1.2844215516274192e-05  7.7903876015763130e-04  9.8323716237407825e-04  5.2044957409921821e-05  1.5796352237273053e-05  9.7635277831762746e-06  9.7077741857653615e-06  8.8591149674857150e-04  4.5822942523696374e-05  1.0026167042276833e-03  1.9968084972730691e-05  2.1063561089832712e-05  2.7090676709013644e-07  6.3570836457886024e-06  1.9700479532503887e-04  9.4096737874280656e-04  5.4327308202047146e-05  2.1921478543187226e-05  6.3690585577484812e-05  1.2992752039786366e-03  1.8035406323174629e-03  1.7827479811817267e-03  8.5622865637336755e-05  2.9435512608122130e-05  1.5353837886064000e-03  1.0145437884166661e-03  3.3855557571802397e-04  1.2475403312291404e-03  8.1841369163094291e-05  2.7715965721449639e-04  8.9691021011397798e-04  8.4337837671841416e-04  7.9241192203872188e-04  9.5231829473122289e-04  1.0553995928948426e-03  1.2993815665438369e-03  5.2733442236629371e-06  6.9791899261082129e-04  4.4953368302651643e-04  2.1436722551590685e-05  1.6989345014175145e-03  9.7189056364342153e-06  8.5959225493493910e-04  3.2825210885957192e-04  1.3666362918572058e-03  1.0754181979403716e-03  1.1160802571925567e-03  3.8109242590820804e-04  1.5918783124568251e-05  1.4546834244709853e-03  1.4661859272700609e-03  4.6085119294790865e-06  2.1009840631308778e-06  1.4185328923842265e-03  2.5124757298256733e-06  1.3373624269163791e-06  1.0375085521357576e-03  1.3674838116012840e-04  6.5519738943205610e-04  3.1754890984293360e-04  8.0697072375154964e-04  6.8282322083437538e-05  7.3471490621721978e-04  6.8040961845933473e-04  3.1007892056311704e-04  1.7714789639794573e-04  1.1379464502354062e-04  1.1573436941637511e-04  7.3669858491561384e-05  2.1444652512574942e-04  9.3035529749828621e-04  3.5196738798979081e-04  6.2624163325439102e-04  1.4902899562873961e-04  5.2177491689728208e-04  4.7423397420097739e-04  9.9403502249184025e-05  2.4436879298794795e-04  7.4557985654827220e-06  5.7641410830127907e-06  2.8752239771983473e-04  4.1200724463788795e-04  8.2274815856321214e-04  7.9306990086971528e-04  6.9375317452134645e-04  8.8282068631105549e-04  1.6801173617363884e-06  1.3864772975328698e-04  1.3468414855755389e-04  1.5961664770186858e-04  1.8712808143484186e-04  1.3242197329811601e-04  1.3893703820172914e-04  7.7275138838774646e-04  1.3635035279606889e-05  6.0526237131258073e-05  4.6984486976031653e-07  3.8445923300658763e-05  7.9701623382930954e-04  9.8169168283639792e-04  9.7693247800813179e-04  5.6475480310579952e-04  3.6080018883187691e-06  1.1574592698223361e-03  1.5680540518254764e-05  1.2458377622237148e-04  1.4450955402035579e-03  4.9982596106927610e-06  1.7944480892884439e-04  1.6433361428226320e-04  3.3874755262050174e-05  2.2992486286027899e-06  4.8802777991359837e-05  9.1027929673867330e-04  1.0885618295885385e-03  8.4351953530073325e-04  9.6829908891139088e-04  5.0776142504250653e-04  4.0021950743278990e-04  5.6439144005609088e-04  7.4703417677405692e-07  2.7566631864035879e-05  1.0505836771851755e-03  9.2255734752897593e-04  9.4922404788423621e-04  1.1448384384725551e-04  5.4505600444257982e-05  3.9772730227178839e-06  4.5887212579436004e-05  4.2235990083917497e-06  1.0080603647779506e-06  5.5856124721928106e-05  2.3922694802229683e-04  1.1359391952967142e-05  3.8467817513187228e-05  2.5195768123407136e-06  5.1705113614231469e-04  1.0724745597176533e-04  1.5355011866202014e-04  2.0596741646797877e-04  9.7609924805383186e-05  4.1073209676398