<?xml version="1.0"?>
<VTKFile type="UnstructuredGrid"  version="0.1"  >
<UnstructuredGrid>
<Piece  NumberOfPoints="6486" NumberOfCells="12696">
<Points>
<DataArray  type="Float64"  NumberOfComponents="3"  format="ascii">0 2.5 0  0 0 0  2.5 0 0  2.5 2.5 0  1.25 0 0  2.5 1.25 0  1.25 2.5 0  0 1.25 0  1.25 1.25 0  0 0.625 0  0.625 0 0  0.625 2.5 0  0 1.875 0  2.5 0.625 0  1.875 0 0  2.5 1.875 0  1.875 2.5 0  1.770833333333333 0.7291666666666666 0  0.7291666666666666 1.770833333333333 0  0.9375 0.625 0  1.875 1.5625 0  0.642361111111111 1.163194444444444 0  1.341594827586207 1.883979885057471 0  0.46875 0.46875 0  2.03125 2.03125 0  0.3626104797979798 1.513178661616162 0  1.381740196078431 0.4564950980392157 0  0.9375 2.172619047619047 0  2.172619047619047 0.9375 0  2.096354166666667 0.4036458333333332 0  0.4036458333333333 2.096354166666667 0  1.684027777777778 1.163194444444444 0  0.3418803418803419 0.8693910256410255 0  1.642742622813391 2.162164207604464 0  1.275619849389031 0.8465650753054845 0  0.9136284722222221 1.434461805555556 0  1.732437511238546 0.3406962303960658 0  0.9714402568595876 1.029779313093998 0  1.52281746031746 1.485615079365079 0  2.1875 1.71875 0  1.06819722569879 0.2997236128493951 0  2.136114211309524 1.303478422619048 0  0.3125 0 0  0 0.3125 0  2.5 2.1875 0  2.1875 2.5 0  0.3200021620376328 1.192323085056694 0  0.6738456129277992 0.8304377375553881 0  1.757891808928991 1.861952730357003 0  1.5625 0 0  0.9375 0 0  0.3125 2.5 0  2.1875 0 0  2.5 0.9375 0  0 0.9375 0  0 1.5625 0  0.9375 2.5 0  2.5 0.3125 0  0 2.1875 0  1.5625 2.5 0  2.5 1.5625 0  0.7448220909826522 0.3003573636608841 0  1.027298850574712 1.871151477832512 0  1.331260495098891 2.197262878816185 0  1.207917681892289 1.582765010956622 0  0.4339993447432606 1.801186844743261 0  0.6337298768939392 1.443093039772727 0  2.049851190476191 0.6826636904761904 0  0.6584821428571428 2.219122023809524 0  1.89575676467455 0.9798457973793544 0  1.437570562095628 1.059380588255917 0  1.502090052505845 0.6987070896496241 0  0.2040860661083546 1.705323965099331 0  0.2083333333333333 0.46875 0  0.5070952039991439 0.2211150679997147 0  0.6916302856529919 0.5813591430410241 0  2.265625 1.953125 0  2.2265625 2.2265625 0  1.886424081252096 2.243391360417365 0  1.40625 0.202164758520858 0  0.2269345238095238 0.2269345238095238 0  1.152730869673694 0.5225850378741401 0  1.885631899587912 1.312095130148776 0  1.614808884009367 0.9049784971014416 0  1.890095442220658 0.5126535558463003 0  2.323168682795699 0.46875 0  2.268811725689575 0.2304742875213018 0  0.6002389442105756 1.967426444210576 0  0.1768313172043011 2.03125 0  0.2311882743104251 2.269525712478698 0  2.03125 0.176831317204301 0  2.280262553344767 0.6954945504579233 0  1.979219539285994 1.809922269642997 0  2.336309523809524 1.09375 0  1.09375 2.336309523809524 0  0.9314042474388009 1.662973812215543 0  0.1634067999087722 1.40625 0  2.337090640094896 1.40625 0  1.141616997467638 2.069311773587991 0  0.46875 2.338939559681489 0  1.542440307908715 1.734944797244472 0  1.556713687786879 1.956977865354753 0  0.8264238995344066 1.975424467820646 0  1.466326331454725 1.275271369760862 0  1.655675324257095 0.5444159974393489 0  0.3385416666666666 0.6479255698005697 0  0 0.78125 0  0.5236073939200119 0.984090461540625 0  2.091665741047893 1.519793517904215 0  1.71875 2.5 0  0.5356538886262603 1.623137930505009 0  0 1.09375 0  0.1932884281517095 1.015625 0  0.8569313582417669 1.2198915584249 0  0.8876981284879677 0.8329884081524883 0  1.115618488474214 0.7219586973356271 0  1.186950366204949 1.043465130075318 0  2.057459118787237 1.110823087309335 0  1.830651283878689 2.049810069572418 0  1.689107969301489 1.367247437031697 0  0.4921048768039656 1.298643370653124 0  0.8213975694444444 2.336309523809524 0  2.03125 2.5 0  1.049729400480002 1.283723261332814 0  1.308101375801673 0.6489479469700392 0  2.5 2.34375 0  0.4968777175037714 0.7562964879736076 0  1.40625 2.5 0  1.501347663534097 2.307027627307738 0  1.602813712048603 0.1926218191360736 0  0.8393082906308107 0.463778306132633 0  1.682663349152719 1.598471865581041 0  0.7774174680851571 1.560004941327907 0  1.554204170364662 0.3898593897892066 0  1.842184459051087 0.186443880058197 0  1.358107417651776 1.696381759610015 0  1.18859291992392 1.77598670078022 0  0.1875331222687418 0.7609599743339348 0  1.339536743965101 1.422080365801479 0  0.7788179348750389 0.9955343414928611 0  0.9062978492805438 0.1919636509126373 0  1.256007360640958 0.3160320559396114 0  1.09375 0 0  1.174986727221844 0.1594990293443933 0  2.34375 1.796875 0  2.318026474511116 1.589177949022232 0  2.34375 2.5 0  1.672742954892153 2.332882724550692 0  0.2683637361947215 1.874801596909639 0  2.174770749820102 0.5581009131310781 0  1.443279522965991 0.8870068372898454 0  0.3385416666666667 0.3571428571428572 0  0.78125 0 0  2.060421048269335 2.314363248763811 0  1.088078737088509 0.8967352118723447 0  1.087825368444708 1.454931510884769 0  2.018308232129541 0.8548495425854904 0  1.943987311736842 0.3246298523011434 0  1.71875 0 0  1.85337849796276 1.144833312386208 0  2.3486328125 2.1044921875 0  1.407588788651747 2.042968789119587 0  2.336309523809524 0.865366648092144 0  2.34375 0 0  2.5 0.15625 0  0.15625 2.5 0  0 2.34375 0  0.1638044648294291 1.242263417405867 0  0.356216654757926 1.032569427322806 0  0.3188217956111817 1.355736727000647 0  0.5924956460852111 0.36112522004736 0  0.6594216488965849 0.1603472116132387 0  1.841804599497131 1.72214349266521 0  0.15625 0 0  0 0.15625 0  2.115898634821499 1.894570904464496 0  0.7821877980253907 0.7129993435924866 0  1.003820447087786 0.4516053462784233 0  0.477562948779147 1.138333049293613 0  0.719493678605015 1.305655360135975 0  0.9772457618587566 2.020350128938537 0  0.8764738248887107 1.826219722709673 0  1.254787875123819 2.339010653832026 0  2.343597354852534 1.249982759769001 0  0.78125 2.5 0  0.46875 2.5 0  2.5 1.40625 0  1.09375 2.5 0  2.5 0.78125 0  2.5 1.09375 0  2.03125 0 0  2.5 0.46875 0  1.40625 0 0  0.46875 0 0  0 0.46875 0  0 1.40625 0  0 1.71875 0  0 2.03125 0  2.5 1.71875 0  2.5 2.03125 0  2.005424054645407 1.653223486966518 0  0.1538730573856537 1.559850281736677 0  2.33984375 2.33984375 0  1.166539506212474 1.922878979538754 0  0.3914885633949916 1.65887232812171 0  0.5795503163042564 1.766243562569382 0  0.399533125920212 1.946786875081388 0  0.7866324979014098 2.127719094551316 0  0.3654683023546834 0.1495701132219454 0  0.1527388747131078 0.6116379440619215 0  2.013737577140188 1.391056634712135 0  1.17635437372994 2.213329084238133 0  1.737118141866284 1.010577140843115 0  2.200707118087222 1.164723314085963 0  1.697018908736685 1.993548551451517 0  0.5387621649009668 0.6070503962352419 0  2.032805785855952 0.5330427622570983 0  1.082699501358059 1.667818725183932 0  1.503819781540653 0.5468420196858188 0  2.015409142866072 2.175941657590429 0  1.752057611265444 0.869642097111018 0  0.612251684107783 2.356045720700959 0  1.902817102342857 0.6607642211999982 0  2.159616561739693 0.7867739969338844 0  0.5120038350106624 2.197302352398502 0  1.888200216011548 1.919501662489862 0  1.495909909726654 2.16028358757309 0  0.489139876703609 1.443203008943564 0  0.8819175670410521 0.3301172743913011 0  1.882591144370812 0.8155965192707721 0  1.133979796994841 1.172526771862882 0  2.206217447916667 2.084147135416667 0  2.20361328125 2.36279296875 0  1.395746985657004 1.556054166359645 0  1.704383111516207 1.734750450338683 0  0.9575737847222222 2.36274223823052 0  1.035150984253136 0.1302833343179028 0  1.383966125325753 0.7651479963479179 0  1.64003252158672 0.6824316405528895 0  2.22550785055421 1.487078576356817 0  1.760964431499756 1.48495222505201 0  1.276460980673788 2.004207003584658 0  0.1341477688427096 1.828777507920502 0  1.542261434180652 1.155296658359034 0  1.334627911613854 0.9696897472490321 0  1.30794231473696 1.119420615785191 0  0.7028260459857245 0.4438906910721139 0  1.625757433094055 1.84268057552138 0  0.9818707849053143 1.165603626132254 0  2.0086489901463 1.243134585689553 0  1.934584460420609 2.374094051915812 0  1.798434376789567 2.38671361912528 0  1.206314791201715 1.382064292497919 0  0.6333752893366955 0.7023738550008095 0  0.7796219811205605 1.42573253164258 0  1.564399711917382 1.026040828857629 0  0.3385416666666666 0.4889012896825397 0  0.1041666666666667 0.390625 0  0.989112246382566 1.543537365516289 0  2.025724425454636 0.9846960595520872 0  0.6602885475034063 2.086117390485779 0  1.607130551925032 1.267198646640915 0  0.1317864544877056 0.8896173683400176 0  1.755387840017567 2.230364320056445 0  1.301540702984401 0.1216289692748247 0  1.433170657577442 0.3331052752740999 0  1.500459610550388 0.113513924782439 0  0.6494291520606965 1.029586599619295 0  1.010146149868299 0.794897284196169 0  0.3700844198238017 2.235390157870766 0  0.3360891767780704 2.36656279435396 0  1.876856241037701 1.437150669863757 0  1.778674102957329 1.245979347269706 0  0.5472829890977179 0.1005517127039925 0  0.4669074189005698 0.3416784232954367 0  1.472765289289269 1.850899166481903 0  1.555853593327178 1.608452097912802 0  0.6708955559113426 1.646561631116984 0  0.8164699620322933 0.5924479455478063 0  0.3167738989468366 1.758696809749795 0  0.2788007305565096 1.605499483471246 0  0.7821720982350511 0.181524936294752 0  1.376812251214195 2.313340247908297 0  1.785652202614777 0.5962261755537186 0  1.761467296310972 0.4679567244718574 0  2.2265625 1.8359375 0  2.3828125 1.9140625 0  0.5279531607054191 2.071552361614785 0  2.397573269551114 0.234375 0  2.383578172599618 0.3589298466020009 0  0.1024267304488855 2.265625 0  0.1164218274003825 2.141070153397999 0  0.2696857594953064 2.135405441512016 0  2.164961300137334 0.1375322943529536 0  2.137757548369486 0.2724194778647587 0  2.238873711826398 0.3626419179496562 0  0.1001414910226386 0.234375 0  0.2176339285714286 0.3478422619047619 0  0.2503620791333544 0.1061694061057066 0  2.336445461915368 0.1250451055247424 0  0.2154004640409726 2.3918124
[...]
<PointData  Scalars="f_16-2"> 
<DataArray  type="Float64"  Name="f_16-2"  format="ascii">-6.8647960582974632e-29  -2.1016768516951391e-22  -5.6457803073929292e-35  -3.3743245841514459e-34  -3.2712738836370394e-23  -7.8035403630334416e-30  -3.9797282566881398e-28  -2.1674369595724149e-18  -7.5547224831449806e-19  -9.6542321668181946e-17  -8.8102176605876724e-21  -1.0907418889525513e-28  -7.6829298922236104e-23  -1.8460213167727670e-32  -2.4426181316705720e-28  -6.6965531725952773e-31  -3.5503512536625860e-30  -3.1735630250664489e-23  -3.4056280182849328e-21  -3.8544695406039162e-17  -5.2806650092173068e-24  -3.8510871564657140e-17  -9.4795841378182658e-23  -4.9722002488058906e-16  -1.3621578437166031e-27  -6.6834412581348993e-20  -3.4527314151060257e-21  -9.5484038803649764e-25  -9.5687167363958038e-27  -4.0410388163504155e-29  -7.5043598282836832e-25  -1.3208249480026798e-21  -1.6965914660515821e-16  -3.3488318552943010e-26  -1.3701943895884229e-18  -1.1679717264798176e-18  -1.4521419698843941e-25  -4.6323427592588832e-17  -3.0680447139156650e-21  -2.4927291872634501e-27  -3.8685642705005503e-20  -7.6128631737315894e-26  -8.5775738328109604e-21  -1.3013364854187285e-17  -2.8296821249419058e-32  -4.0154733310926174e-32  -6.1000636751190603e-18  -4.9386077321069619e-16  -1.0207302816844988e-24  -1.4136486090862698e-25  -1.3960978153973498e-21  -4.8422896237741608e-29  -1.2558770631844158e-31  -1.0177933360268294e-30  -3.2528919582925812e-17  -2.8294656952819742e-20  -2.6918485517717955e-28  -3.9401425373437265e-35  -9.5027809690296651e-26  -6.9617792749201954e-29  -5.8678743070374698e-30  -2.2006675622796023e-18  -5.0539568809005347e-22  -1.8916940041785253e-25  -2.7727801308215084e-20  -4.7788663177775012e-22  -8.6932325117848855e-19  -1.4920454643485566e-26  -8.3867337751342910e-26  -1.1511197256299412e-23  -1.4429463618958774e-19  -9.2070782602950235e-21  -2.2703545041154194e-21  -6.0142535021539003e-16  -4.1112837845911606e-18  -2.7568760847302890e-16  -4.3189084877248465e-29  -2.2671802108068785e-30  -3.1531373449783421e-28  -9.7117294529639564e-24  -5.1114026931754619e-17  -5.2719318345062379e-19  -1.5853136687549820e-23  -4.1210938376527001e-21  -7.6110286736828066e-26  -1.4199572331405719e-31  -1.0485889313968606e-32  -2.8521214522957027e-23  -3.0454660724869142e-24  -1.1171003945888463e-26  -5.3265048580274665e-30  -2.9563396763516680e-29  -5.7254922323785485e-26  -2.8687503055695742e-28  -1.9730054997592304e-26  -2.7534844547640006e-20  -2.7449214459765284e-19  -4.5405831410953221e-28  -6.7207212180388913e-24  -3.2753866193704563e-27  -1.1756501943974892e-22  -3.0630113178917654e-24  -6.5275897789629625e-23  -3.7652013215899276e-20  -4.3646962875416498e-23  -6.5858248437735464e-16  -7.0674987074825394e-17  -1.7113530435475523e-16  -7.4850740682615930e-26  -2.0684235836156612e-29  -2.2407330977867927e-20  -9.9675312429982548e-18  -2.1604864426713316e-17  -1.8876668029561445e-17  -1.4418157609851511e-16  -7.6585731606009803e-18  -4.6778521782754170e-18  -3.7555465153633205e-25  -1.9163914784909500e-26  -5.4527676754912387e-22  -3.9429903488051399e-18  -1.0820130616297942e-26  -4.5738988087811922e-31  -2.8524679879173136e-18  -1.9120661329086985e-19  -3.2357610149202927e-33  -7.1006377253044683e-16  -1.8451748136983233e-28  -6.2025479762364989e-27  -1.5933092598186556e-25  -1.8482572305650018e-17  -8.6779956303813828e-23  -1.5261362317245087e-19  -2.8303894490092698e-23  -4.9948852369515584e-28  -1.6340212302794708e-21  -1.6005461246882213e-21  -1.2519002986034639e-16  -5.8540125483478147e-20  -1.7386139578510048e-16  -2.1043972073522120e-20  -2.2830284856380020e-21  -2.5887188627184028e-22  -3.0575417735262368e-22  -4.0973155705564427e-29  -3.2434980485927798e-28  -3.7278312514791797e-33  -8.4941703438333109e-28  -9.0507504903630808e-23  -6.0439401956747616e-29  -9.5385735963551202e-20  -3.7501860444129753e-16  -4.4971405833933606e-21  -6.8436421542890337e-30  -1.9581806259024421e-17  -3.5338386315356587e-19  -2.5130260131213890e-25  -4.7060688585650774e-28  -7.3555049057657374e-27  -4.0028225227977273e-23  -1.3360223668556059e-30  -2.5604896850978360e-24  -4.5571829615231118e-29  -2.8631805871311861e-33  -3.3073319826972274e-35  -6.2558137404857898e-29  -1.8528701052995436e-27  -2.0909278208462510e-18  -4.4222960406547070e-17  -6.5726857325048355e-19  -4.4737183607824144e-17  -1.1330062066270426e-19  -1.6008912498448709e-24  6.7516218163684655e-22  -1.6625323684525831e-19  -1.5288969362558646e-27  -2.6013414011181871e-16  -1.9272761271897154e-18  -2.9455336787028694e-17  -7.3005943323622519e-18  -2.8432269055522136e-23  -1.4685325396518262e-21  -1.2995861911317927e-26  -3.6506144830449463e-28  -1.5148964044723660e-28  -6.4453610697269789e-29  -9.6761720622954020e-30  -4.3951382543671031e-28  -1.7153427003610555e-31  -4.1093836817777737e-30  -6.8192378747122217e-30  -6.2440135528977089e-34  -2.0742805560146008e-24  -1.1813785637138478e-20  -6.9175331498874497e-17  -3.1871373172132285e-19  -1.8000585650501718e-21  -3.5986273863503263e-24  -2.4347015644125346e-30  -1.5049968835047051e-31  -1.8248759994765483e-25  -2.6893397936379230e-20  -5.5997824212840846e-32  -1.1976749453770180e-22  -6.6077934451022633e-21  -1.6495725566311138e-21  -2.1929057211032510e-23  -1.6786855715218039e-24  -1.2286252143162800e-18  -1.7896579269569095e-16  -8.3635364337423585e-25  -3.1397315037749640e-25  -4.2836025142739996e-22  -1.1394971853491921e-26  -3.4408643263181652e-25  -7.4884663161458207e-16  -2.3709525605563078e-27  -1.6637859242172440e-20  -1.1210316776512083e-21  -1.5684391038529851e-28  -1.9270262348989039e-22  -2.4595741234100275e-27  -5.3871610084029541e-25  -2.6281483132784121e-27  -1.0012787734143412e-25  -6.0255011612818600e-26  -1.3054046912769349e-25  -4.2171036606930524e-19  -1.0172115534217112e-18  -4.2910777961299776e-24  -4.3364162787630123e-18  -2.4818691727967658e-29  -2.6801327152882068e-31  -6.3283983643955059e-21  -1.1237547195420751e-23  -8.1219742826945202e-27  -1.1958037862147965e-21  -1.4438087033563533e-19  -3.6200600867485001e-22  -5.2506589721105964e-27  -7.5537664687863805e-23  -1.5111275674927857e-23  -2.5541340227711991e-22  -1.8181863629018390e-20  -6.9351917977651284e-19  -7.3393601784320355e-19  -6.2727657460259321e-17  -9.0279204672054937e-24  -1.5897585146036396e-17  -1.5200323514204307e-24  -1.5676415143980054e-29  -6.7476772591264554e-29  -3.3205865301068021e-19  -6.4147991352128905e-16  -1.3578114585645813e-18  -1.5879375384474807e-20  -8.5612969806481368e-16  -2.2312063967801079e-16  -1.7355735644990596e-19  -4.8798946285303178e-25  -2.0910320726349974e-24  -4.2097743561304600e-21  -4.8130331360923323e-17  -2.6637815157177174e-27  -2.2338860495692134e-23  -1.2899513255226196e-22  -5.4430869225451614e-25  -1.4923661523156625e-16  -3.9202414667315112e-17  -3.7756076475467701e-26  -1.0964331548340807e-27  -1.0998862111497720e-23  -1.7113043220631758e-22  -4.6900843986038683e-20  -1.0265795792391975e-16  -4.4284673370713159e-23  -4.5304732452738024e-22  -2.6466809732263721e-20  -1.0690959074829144e-16  -8.7255223435305743e-22  -1.3354567107573349e-20  -7.3272726029817440e-20  -1.0998325510230353e-26  -3.9138895847826399e-24  -8.3545452198694557e-25  -4.0222968370328728e-28  -5.4399699212037510e-30  -2.0048153061309845e-24  -2.6925703890115943e-34  -2.4798514027325383e-33  -1.7064908603407201e-26  -3.1426711050585868e-25  -3.7704599873546978e-25  -1.8159488252425428e-31  -8.5151981344576921e-31  -2.2008745243345949e-31  -2.8840156382772809e-17  -5.9975923136937137e-16  -1.1720655552667106e-19  -1.9622094933940393e-33  -6.5896822560808572e-28  -3.2617185652760474e-25  -6.6717533652659006e-20  -1.6629385448172089e-26  -6.3176861275719330e-18  -6.4127727698138606e-20  -6.8357755784710689e-20  -8.6090833001764057e-24  -5.5515317750279596e-22  -5.8088906308787527e-17  -2.1959742065376191e-23  -5.2083742295594584e-29  -4.0251844107248283e-31  -3.0692248537504045e-30  -1.2615346644282296e-31  -2.5294225502576174e-16  -2.1225435305075179e-22  -9.1375931326060846e-23  -1.0716576909068931e-20  -7.1296877488434726e-27  -6.9336749500298920e-21  -2.4493237708130731e-26  -3.4237325204351586e-16  -1.9558178629212265e-20  -3.6952205047783753e-21  -5.2346543257866683e-28  -3.9020388487877234e-21  -5.1695212519640525e-27  -1.3784716132330774e-24  -6.9930402674434345e-18  -3.1884221697681248e-29  -9.5380641661939693e-17  -8.8542988889741181e-18  -1.9820087669571533e-26  -1.0134861646878208e-26  -1.7432054637589460e-27  -2.5743633612266183e-27  -1.3105480822194145e-19  -8.4079669090934028e-19  -4.2517657179860293e-29  -4.4807669553625234e-27  -7.2288668254786236e-17  -3.2835301728593242e-26  -7.8066008237498584e-22  -1.7395571891790519e-27  -1.2596365575715312e-27  -2.3591548571234012e-29  -3.1432331099119669e-25  -1.3665169360316352e-19  -1.2047928852556471e-27  -5.0571286751714657e-18  -2.8753315329676059e-16  -8.9684608866989816e-16  -5.7880610724893786e-16  -6.3707362989207025e-24  -7.8606079360891809e-21  -4.5303137650480475e-18  -5.7528398554683473e-29  -4.2772576912685990e-29  -1.3258692898214593e-27  -5.5736837444779532e-28  -3.4625296740221981e-33  -7.4875975644970140e-25  -5.5906741437255122e-26  -1.4625749052405308e-20  -4.7035112000745092e-31  -4.5538867464766328e-24  -3.5197740845021880e-26  -9.0834217488153339e-24  -2.0161593537263909e-22  -1.5774973611192409e-19  -1.0869718226504758e-19  -3.5328870613530726e-17  -3.0792683105746139e-29  -8.5936183574054691e-22  -1.4521765843880052e-17  -5.0159461492997929e-18  -4.9053948421825766e-28  -3.3337920731505689e-16  -1.0894977044315220e-16  -2.9828433718314962e-16  -6.4013534983509931e-17  -2.6048036594309863e-25  -5.2820631234365042e-18  -2.6715114698133613e-21  -7.3735619160128530e-20  -6.7616546133021662e-23  -3.2007116252702052e-24  -6.0355979571132165e-28  -2.5415339148064524e-19  -1.9956249172096737e-20  -3.6119005025066084e-18  -1.7182209655891255e-25  -6.3056620225025519e-17  -1.3959584094607613e-16  -1.8361778947481857e-28  -1.7640078061925094e-20  -5.6041690193212415e-25  -2.4913782292125374e-28  -1.4013975537476295e-18  -1.4201262150024752e-16  -2.2956292896862270e-17  -3.8308877468124476e-24  -6.4407834602796714e-26  -2.7233688821425918e-20  -1.3421102409264956e-25  -7.2046573676076940e-28  -1.2020911371392577e-19  -5.4673734797948905e-16  -3.6352201710519227e-34  -1.1624089374219433e-18  -1.4675399876748607e-18  -5.9996426407360828e-18  -5.8862415614731179e-30  -3.4810706021912655e-21  -6.1056888384920186e-20  -7.2951819490359837e-23  -8.6540995980521427e-16  -6.9936744661574903e-17  -7.7321122659543564e-29  -1.4401985686353692e-18  -1.5582385001806815e-23  -2.9080020429764259e-25  -1.5770823139833853e-26  -2.0967954083941531e-18  -6.9345765662617753e-18  -3.0456286554685810e-22  -1.1574309748059551e-23  -1.6576666972132290e-25  -8.7410888600671178e-27  -6.5808367520423475e-21  -1.1674749203438432e-19  -1.3891645141156432e-27  -1.7694597444188251e-26  -1.7833657844297393e-29  -2.1378784037807668e-22  -2.1959606809504414e-23  -3.2966386432416881e-24  -8.6484776752136357e-25  -1.0829610872992174e-20  -8.1037942153699124e-30  -1.5109887094703008e-21  -2.2865450520458589e-17  -5.8017339142865022e-27  -2.7655127984998901e-32  -3.1864437488373348e-16  -7.7989884176735517e-23  -4.0698340322680178e-20  -9.0850686051836336e-20  -2.1071757405609238e-32  -7.8240128296778132e-21  -1.0077422334715064e-17  -4.6724670739115755e-26  -3.9380096269616411e-30  -8.0165593729133449e-28  -3.1327505486898941e-28  -2.6659609954822282e-17  -5.8688260479369257e-16  -8.2069010338197939e-19  -7.1127201930404951e-17  -2.8652780193177744e-22  -5.3438973733986246e-22  -1.6107295338755798e-18  -9.4158697930558949e-31  -2.0174170778081093e-30  -8.8340222830370152e-19  -7.9187492215735320e-26  -1.3585359875865015e-16  -9.9717385779738019e-23  -2.8615222789429834e-16  -5.9515968147010156e-29  -1.0479184142711865e-17  -2.7538606673644709e-17  -3.6322425153401950e-21  -1.4881804183737618e-21  -1.7470783661649086e-22  -6.8540683783440885e-22  -2.3957171438039443e-22  -7.9135286429002240e-21  -3.0292775064923043e-19  -4.5861040604278401e-29  -4.5432003712362546e-29  -2.7168983611155178e-30  -1.2584285931280631e-26  -2.0099663380726862e-17  -3.8861603519090310e-29  -8.6616720179806720e-17  -3.4228913899787254e-21  -2.4458844868755673e-17  -4.5723022638777862e-25  -3.3775699803086220e-19  -3.1746569849940849e-22  -2.7830958783766164e-26  -2.6176754101963239e-20  -4.1919773249389635e-31  -4.3144867319981813e-28  -1.1465889208867538e-23  -2.4063543627761039e-27  -4.8523836542258791e-23  -1.7181499452904704e-28  -3.0363067014533452e-26  -5.7307133558857133e-21  -2.4496383268184628e-18  -1.2093247025389486e-20  -3.2654083438322737e-33  -2.3754469726711952e-32  -3.0889861074363591e-27  -2.1920063566481726e-21  -1.8874798316491081e-22  -4.5888889327367514e-22  -7.4360203303842917e-23  -2.8663425551099361e-30  -4.1308986558200095e-19  -1.2326313965897030e-24  -8.1845507645446701e-18  -7.2220791012779245e-17  -2.7590474605547627e-24  -3.9128682113949412e-22  -1.1455345452091362e-23  -3.6522271921527729e-28  -5.6876455979123664e-28  -2.7949575988653876e-22  -3.2764627662529378e-19  -4.3369869698179918e-19  -5.1193213644762143e-29  -1.9762224338138360e-25  -3.9355453812982074e-22  -2.8760061136883840e-22  -7.1733691505286008e-23  -1.3113237265447654e-24  -3.2647733636894308e-24  -3.2568764602520556e-27  -1.1248648062936834e-27  -6.2523473684991529e-23  -7.3277516735046580e-32  -7.9339927221931371e-26  -2.8533062461714598e-26  -1.8640688130372125e-24  -4.5809661711548535e-30  -4.4829852436737773e-29  -1.3261057334210515e-29  -4.9183049718979814e-35  -1.2688037967632278e-24  -1.1317293549705652e-28  -1.4782020202760792e-17  -2.3230296033343176e-17  -2.8908169732099062e-21  -5.5929771427032334e-27  -1.0113768918041045e-28  -9.6410056603505342e-22  -1.7615984521510090e-31  -3.1819149462494963e-30  -4.4229831908323868e-19  -1.6355465454934832e-19  -9.6860994174548909e-33  -8.5034236383718909e-26  -7.0252710745874994e-21  -2.6637961672544564e-18  -2.3172039383751815e-25  -4.9230799811629862e-26  -2.0628751288645577e-32  -2.2526529257451094e-16  -7.5317545950010828e-16  -3.9957374166805168e-16  -5.1208866241255971e-22  -2.0071405311205632e-34  -3.5598048602666357e-23  -4.9281325019275661e-17  -3.5172046157102060e-31  -3.4095697237213762e-27  -1.0682129001100142e-24  -3.8389046834092256e-23  -4.5099426903368264e-25  -1.8883509017377928e-32  -1.8495557886041448e-21  -3.5830599329376798e-28  -5.7779013936254720e-31  -1.2201125771220958e-16  -1.4824842402030089e-19  -2.9583629044405343e-21  -3.3864098923851858e-27  -5.6213644974533966e-30  -3.6810258825809340e-21  -1.6386851312463319e-24  -3.4934878087327011e-19  -2.7604407696511660e-21  -3.2644245831286014e-31  -2.8535581909147033e-19  -3.9760237679033688e-17  -3.1248368194977185e-18  -2.8519059039678217e-23  -2.2696662951315469e-18  -1.4543569577144575e-18  -5.7429018091507852e-19  -3.8906706143166113e-27  -1.1991726714594472e-23  -1.8676456043235140e-17  -5.3031671735218013e-19  -1.6736973281660098e-17  -1.8232684388281203e-20  -9.9760361671085410e-19  -1.9965086296490215e-16  -1.9449946517673495e-17  -2.8197530803944107e-29  -2.2913453421367705e-30  -9.4365663212230529e-20  -4.8546779209358833e-19  -4.8845749082343963e-19  -2.2579039934728556e-19  -3.8669278689411156e-16  -2.3135038704221042e-24  -8.1307043312851119e-28  -6.7712981555533664e-22  -2.8108075442543075e-28  -3.2989778707083143e-30  -8.4716249304213208e-30  -1.8457026186945625e-23  -2.3756044361574645e-29  -1.6242498760849737e-17  -9.8923560686579151e-27  -3.7580041982380809e-20  -4.2436818691701502e-26  -1.5497709522003634e-26  -1.1828147839507312e-22  -1.3059315142527115e-21  -1.1235010148583583e-27  -8.4237239744345982e-24  -3.3856019079175841e-31  -6.9006898499867675e-18  -5.3479642874382813e-25  -1.6889495250071548e-33  -3.6820635578689244e-16  -4.7148676523064941e-16  -8.7982757706169653e-22  -1.3134986759946631e-25  -6.5555839971404903e-20  -1.7647827606097648e-19  -1.6198682894596882e-30  -4.4825668955075305e-20  -5.9604720861562087e-32  -9.7068310515302855e-29  -9.0172516913840985e-21  -5.1289748337267188e-26  -8.3400981777796604e-16  -3.1121724787180084e-21  -1.1902296023306379e-24  -1.0960464401602902e-23  -8.0486462568696189e-22  -1.6208579783702049e-27  -6.8667157103979468e-27  -7.2996096801893986e-22  -7.0752913128749610e-18  -2.4592800750503322e-22  -1.7602031140140906e-24  -4.5484889937020322e-28  -4.5517577473031988e-29  -4.7676548441302563e-25  -2.0880805436936300e-18  -8.1754728546901765e-28  -3.0777528590447066e-29  -9.1284402548955612e-23  -1.0293900471518013e-32  -2.2782081646464104e-28  -1.5443016900452067e-31  -3.2527301722535163e-28  -7.1845173922791070e-29  -2.5100210042726728e-28  -7.9840285816456982e-21  -1.2138199532980837e-28  -4.5820999300706421e-30  -1.1675457643699433e-27  -3.3341789690824713e-26  -6.0226760447911380e-30  -8.8600122379340354e-30  -8.0482295579054605e-30  -1.8863334732403303e-17  -4.7449369258155194e-18  -9.0607153616287956e-19  -4.4856182569047712e-28  -9.1927231993902665e-17  -2.6065977933112197e-21  -4.3855893201925718e-29  -1.8357583559818252e-23  -5.7625407321372088e-29  -3.3780444099812962e-21  -1.3162179310574614e-26  -2.3144990897870263e-35  -1.0862825815929296e-20  -6.3019756858956890e-25  -1.9274902521469494e-18  -4.1817043477325060e-17  -8.4793592133430814e-30  -9.5116793477420577e-33  -1.0408766855876054e-33  -9.3566625986372864e-34  -9.1613838332328783e-20  -9.9771856131146145e-29  -8.8732118176902613e-17  -1.4731309460159598e-30  -7.5160792553272753e-32  -1.4834399200060732e-34  -1.2972477762368843e-24  -2.8756401551716544e-25  -4.6413720770035709e-20  -1.0022949922843933e-27  -6.0616476227023510e-21  -2.1820180057016580e-27  -4.1891379205957348e-16  -8.3396405743149799e-16  -6.9386437634634467e-16  -4.3027070290007052e-28  -2.1724432283579402e-20  -2.3259845976381564e-16  -1.0436297690148449e-16  -4.4259392587408314e-24  -1.3675751759996731e-17  -2.1399668928959128e-18  -5.8601674175844787e-24  -9.9940245210120050e-20  -3.1270425337730780e-20  -9.6998386164676216e-21  -7.4121131391610106e-19  -1.4630065555379558e-16  -3.2928667574496906e-16  -2.5266998647334609e-27  -1.1757672120034611e-23  -1.2552295852427841e-22  -2.6903933179849611e-26  -6.3785520827640307e-16  -5.8932833501240377e-29  -3.9891759110131162e-20  -1.2892793387887695e-23  -8.5880204847106686e-18  -9.3415301031874012e-17  -1.7022950506442083e-20  -4.6201703297455356e-23  -1.7906266403708855e-21  -1.1437540304259424e-16  -3.3290830705254036e-17  -4.2831588875034181e-27  -4.7073403010999505e-28  -3.3260375129761637e-16  -6.7568777116400914e-27  -2.8106549278551495e-28  -7.0871120479680462e-19  -1.1964246974023098e-21  -9.6309418185684555e-17  -2.5803479199863862e-22  -1.8613798229637515e-16  -1.1343919888793505e-27  -1.0383061165586626e-20  -5.4242942884755879e-21  -1.1771170442779940e-25  -4.9593893032892605e-24  -3.2474763214305782e-24  -2.0590120419466801e-25  -4.9403632948086314e-25  -5.8097260192257881e-25  -3.0851266032197815e-19  -7.1922256104459783e-24  -8.4192251333191614e-22  -5.4203590180038763e-19  -1.0757538442513031e-22  -4.4952123217422000e-23  -3.1989524052652419e-27  -5.4653750149978034e-20  -4.0983819539584052e-24  -5.1107416233434424e-25  -1.6638027815152818e-24  -3.1000894004990233e-23  -1.8557620854409893e-20  -1.5811035738986177e-20  -1.9507176510920000e-21  -1.0409765579921195e-17  -3.2284665591649835e-30  -1.1042459377513476e-25  -6.4817234211464271e-26  -7.6141929237917100e-26  -1.2939068216585569e-25  -2.2431237755042634e-26  -2.6462705445157031e-27  -2.1244723010564132e-21  -1.4663327572681326e-23  -2.4522742077166908e-27  -4.4930013752149499e-30  -1.7802186881351304e-26  -8.1685012467291977e-21  -1.1554530316770397e-18  -3.2319615741460913e-18  -2.3891668016972694e-21  -9.5659606153384003e-30  -2.0796942463879248e-16  -2.7181422813469835e-23  -4.2099271548892855e-28  -4.9703526982753800e-16  -4.8027568833513357e-28  -3.675370815