<?xml version="1.0"?>
<VTKFile type="UnstructuredGrid"  version="0.1"  >
<UnstructuredGrid>
<Piece  NumberOfPoints="6486" NumberOfCells="12696">
<Points>
<DataArray  type="Float64"  NumberOfComponents="3"  format="ascii">0 2.5 0  0 0 0  2.5 0 0  2.5 2.5 0  1.25 0 0  2.5 1.25 0  1.25 2.5 0  0 1.25 0  1.25 1.25 0  0 0.625 0  0.625 0 0  0.625 2.5 0  0 1.875 0  2.5 0.625 0  1.875 0 0  2.5 1.875 0  1.875 2.5 0  1.770833333333333 0.7291666666666666 0  0.7291666666666666 1.770833333333333 0  0.9375 0.625 0  1.875 1.5625 0  0.642361111111111 1.163194444444444 0  1.341594827586207 1.883979885057471 0  0.46875 0.46875 0  2.03125 2.03125 0  0.3626104797979798 1.513178661616162 0  1.381740196078431 0.4564950980392157 0  0.9375 2.172619047619047 0  2.172619047619047 0.9375 0  2.096354166666667 0.4036458333333332 0  0.4036458333333333 2.096354166666667 0  1.684027777777778 1.163194444444444 0  0.3418803418803419 0.8693910256410255 0  1.642742622813391 2.162164207604464 0  1.275619849389031 0.8465650753054845 0  0.9136284722222221 1.434461805555556 0  1.732437511238546 0.3406962303960658 0  0.9714402568595876 1.029779313093998 0  1.52281746031746 1.485615079365079 0  2.1875 1.71875 0  1.06819722569879 0.2997236128493951 0  2.136114211309524 1.303478422619048 0  0.3125 0 0  0 0.3125 0  2.5 2.1875 0  2.1875 2.5 0  0.3200021620376328 1.192323085056694 0  0.6738456129277992 0.8304377375553881 0  1.757891808928991 1.861952730357003 0  1.5625 0 0  0.9375 0 0  0.3125 2.5 0  2.1875 0 0  2.5 0.9375 0  0 0.9375 0  0 1.5625 0  0.9375 2.5 0  2.5 0.3125 0  0 2.1875 0  1.5625 2.5 0  2.5 1.5625 0  0.7448220909826522 0.3003573636608841 0  1.027298850574712 1.871151477832512 0  1.331260495098891 2.197262878816185 0  1.207917681892289 1.582765010956622 0  0.4339993447432606 1.801186844743261 0  0.6337298768939392 1.443093039772727 0  2.049851190476191 0.6826636904761904 0  0.6584821428571428 2.219122023809524 0  1.89575676467455 0.9798457973793544 0  1.437570562095628 1.059380588255917 0  1.502090052505845 0.6987070896496241 0  0.2040860661083546 1.705323965099331 0  0.2083333333333333 0.46875 0  0.5070952039991439 0.2211150679997147 0  0.6916302856529919 0.5813591430410241 0  2.265625 1.953125 0  2.2265625 2.2265625 0  1.886424081252096 2.243391360417365 0  1.40625 0.202164758520858 0  0.2269345238095238 0.2269345238095238 0  1.152730869673694 0.5225850378741401 0  1.885631899587912 1.312095130148776 0  1.614808884009367 0.9049784971014416 0  1.890095442220658 0.5126535558463003 0  2.323168682795699 0.46875 0  2.268811725689575 0.2304742875213018 0  0.6002389442105756 1.967426444210576 0  0.1768313172043011 2.03125 0  0.2311882743104251 2.269525712478698 0  2.03125 0.176831317204301 0  2.280262553344767 0.6954945504579233 0  1.979219539285994 1.809922269642997 0  2.336309523809524 1.09375 0  1.09375 2.336309523809524 0  0.9314042474388009 1.662973812215543 0  0.1634067999087722 1.40625 0  2.337090640094896 1.40625 0  1.141616997467638 2.069311773587991 0  0.46875 2.338939559681489 0  1.542440307908715 1.734944797244472 0  1.556713687786879 1.956977865354753 0  0.8264238995344066 1.975424467820646 0  1.466326331454725 1.275271369760862 0  1.655675324257095 0.5444159974393489 0  0.3385416666666666 0.6479255698005697 0  0 0.78125 0  0.5236073939200119 0.984090461540625 0  2.091665741047893 1.519793517904215 0  1.71875 2.5 0  0.5356538886262603 1.623137930505009 0  0 1.09375 0  0.1932884281517095 1.015625 0  0.8569313582417669 1.2198915584249 0  0.8876981284879677 0.8329884081524883 0  1.115618488474214 0.7219586973356271 0  1.186950366204949 1.043465130075318 0  2.057459118787237 1.110823087309335 0  1.830651283878689 2.049810069572418 0  1.689107969301489 1.367247437031697 0  0.4921048768039656 1.298643370653124 0  0.8213975694444444 2.336309523809524 0  2.03125 2.5 0  1.049729400480002 1.283723261332814 0  1.308101375801673 0.6489479469700392 0  2.5 2.34375 0  0.4968777175037714 0.7562964879736076 0  1.40625 2.5 0  1.501347663534097 2.307027627307738 0  1.602813712048603 0.1926218191360736 0  0.8393082906308107 0.463778306132633 0  1.682663349152719 1.598471865581041 0  0.7774174680851571 1.560004941327907 0  1.554204170364662 0.3898593897892066 0  1.842184459051087 0.186443880058197 0  1.358107417651776 1.696381759610015 0  1.18859291992392 1.77598670078022 0  0.1875331222687418 0.7609599743339348 0  1.339536743965101 1.422080365801479 0  0.7788179348750389 0.9955343414928611 0  0.9062978492805438 0.1919636509126373 0  1.256007360640958 0.3160320559396114 0  1.09375 0 0  1.174986727221844 0.1594990293443933 0  2.34375 1.796875 0  2.318026474511116 1.589177949022232 0  2.34375 2.5 0  1.672742954892153 2.332882724550692 0  0.2683637361947215 1.874801596909639 0  2.174770749820102 0.5581009131310781 0  1.443279522965991 0.8870068372898454 0  0.3385416666666667 0.3571428571428572 0  0.78125 0 0  2.060421048269335 2.314363248763811 0  1.088078737088509 0.8967352118723447 0  1.087825368444708 1.454931510884769 0  2.018308232129541 0.8548495425854904 0  1.943987311736842 0.3246298523011434 0  1.71875 0 0  1.85337849796276 1.144833312386208 0  2.3486328125 2.1044921875 0  1.407588788651747 2.042968789119587 0  2.336309523809524 0.865366648092144 0  2.34375 0 0  2.5 0.15625 0  0.15625 2.5 0  0 2.34375 0  0.1638044648294291 1.242263417405867 0  0.356216654757926 1.032569427322806 0  0.3188217956111817 1.355736727000647 0  0.5924956460852111 0.36112522004736 0  0.6594216488965849 0.1603472116132387 0  1.841804599497131 1.72214349266521 0  0.15625 0 0  0 0.15625 0  2.115898634821499 1.894570904464496 0  0.7821877980253907 0.7129993435924866 0  1.003820447087786 0.4516053462784233 0  0.477562948779147 1.138333049293613 0  0.719493678605015 1.305655360135975 0  0.9772457618587566 2.020350128938537 0  0.8764738248887107 1.826219722709673 0  1.254787875123819 2.339010653832026 0  2.343597354852534 1.249982759769001 0  0.78125 2.5 0  0.46875 2.5 0  2.5 1.40625 0  1.09375 2.5 0  2.5 0.78125 0  2.5 1.09375 0  2.03125 0 0  2.5 0.46875 0  1.40625 0 0  0.46875 0 0  0 0.46875 0  0 1.40625 0  0 1.71875 0  0 2.03125 0  2.5 1.71875 0  2.5 2.03125 0  2.005424054645407 1.653223486966518 0  0.1538730573856537 1.559850281736677 0  2.33984375 2.33984375 0  1.166539506212474 1.922878979538754 0  0.3914885633949916 1.65887232812171 0  0.5795503163042564 1.766243562569382 0  0.399533125920212 1.946786875081388 0  0.7866324979014098 2.127719094551316 0  0.3654683023546834 0.1495701132219454 0  0.1527388747131078 0.6116379440619215 0  2.013737577140188 1.391056634712135 0  1.17635437372994 2.213329084238133 0  1.737118141866284 1.010577140843115 0  2.200707118087222 1.164723314085963 0  1.697018908736685 1.993548551451517 0  0.5387621649009668 0.6070503962352419 0  2.032805785855952 0.5330427622570983 0  1.082699501358059 1.667818725183932 0  1.503819781540653 0.5468420196858188 0  2.015409142866072 2.175941657590429 0  1.752057611265444 0.869642097111018 0  0.612251684107783 2.356045720700959 0  1.902817102342857 0.6607642211999982 0  2.159616561739693 0.7867739969338844 0  0.5120038350106624 2.197302352398502 0  1.888200216011548 1.919501662489862 0  1.495909909726654 2.16028358757309 0  0.489139876703609 1.443203008943564 0  0.8819175670410521 0.3301172743913011 0  1.882591144370812 0.8155965192707721 0  1.133979796994841 1.172526771862882 0  2.206217447916667 2.084147135416667 0  2.20361328125 2.36279296875 0  1.395746985657004 1.556054166359645 0  1.704383111516207 1.734750450338683 0  0.9575737847222222 2.36274223823052 0  1.035150984253136 0.1302833343179028 0  1.383966125325753 0.7651479963479179 0  1.64003252158672 0.6824316405528895 0  2.22550785055421 1.487078576356817 0  1.760964431499756 1.48495222505201 0  1.276460980673788 2.004207003584658 0  0.1341477688427096 1.828777507920502 0  1.542261434180652 1.155296658359034 0  1.334627911613854 0.9696897472490321 0  1.30794231473696 1.119420615785191 0  0.7028260459857245 0.4438906910721139 0  1.625757433094055 1.84268057552138 0  0.9818707849053143 1.165603626132254 0  2.0086489901463 1.243134585689553 0  1.934584460420609 2.374094051915812 0  1.798434376789567 2.38671361912528 0  1.206314791201715 1.382064292497919 0  0.6333752893366955 0.7023738550008095 0  0.7796219811205605 1.42573253164258 0  1.564399711917382 1.026040828857629 0  0.3385416666666666 0.4889012896825397 0  0.1041666666666667 0.390625 0  0.989112246382566 1.543537365516289 0  2.025724425454636 0.9846960595520872 0  0.6602885475034063 2.086117390485779 0  1.607130551925032 1.267198646640915 0  0.1317864544877056 0.8896173683400176 0  1.755387840017567 2.230364320056445 0  1.301540702984401 0.1216289692748247 0  1.433170657577442 0.3331052752740999 0  1.500459610550388 0.113513924782439 0  0.6494291520606965 1.029586599619295 0  1.010146149868299 0.794897284196169 0  0.3700844198238017 2.235390157870766 0  0.3360891767780704 2.36656279435396 0  1.876856241037701 1.437150669863757 0  1.778674102957329 1.245979347269706 0  0.5472829890977179 0.1005517127039925 0  0.4669074189005698 0.3416784232954367 0  1.472765289289269 1.850899166481903 0  1.555853593327178 1.608452097912802 0  0.6708955559113426 1.646561631116984 0  0.8164699620322933 0.5924479455478063 0  0.3167738989468366 1.758696809749795 0  0.2788007305565096 1.605499483471246 0  0.7821720982350511 0.181524936294752 0  1.376812251214195 2.313340247908297 0  1.785652202614777 0.5962261755537186 0  1.761467296310972 0.4679567244718574 0  2.2265625 1.8359375 0  2.3828125 1.9140625 0  0.5279531607054191 2.071552361614785 0  2.397573269551114 0.234375 0  2.383578172599618 0.3589298466020009 0  0.1024267304488855 2.265625 0  0.1164218274003825 2.141070153397999 0  0.2696857594953064 2.135405441512016 0  2.164961300137334 0.1375322943529536 0  2.137757548369486 0.2724194778647587 0  2.238873711826398 0.3626419179496562 0  0.1001414910226386 0.234375 0  0.2176339285714286 0.3478422619047619 0  0.2503620791333544 0.1061694061057066 0  2.336445461915368 0.1250451055247424 0  0.2154004640409726 2.3918124
[...]
<PointData  Scalars="f_49-2"> 
<DataArray  type="Float64"  Name="f_49-2"  format="ascii">4.2645964173686927e-22  1.3855235946798477e-17  -8.2107058953712171e-29  -2.7777114731266862e-22  4.8700585311252639e-19  -1.1900634324675907e-24  5.0408594641074052e-22  6.1750148413312246e-17  -6.0747891328113959e-16  4.3844063538932761e-17  7.5315634251431407e-18  5.7950567968954071e-22  2.1441214738791348e-18  7.6146767382683662e-30  7.5273700843571240e-23  -2.5047388585227745e-21  -1.7329460946202593e-20  2.6595380780380817e-21  7.8006123380846930e-18  1.5041187013419300e-18  -3.3471295197436070e-17  2.9262828562976940e-16  -2.6678411062198820e-17  1.1739739427717340e-16  -3.1435310456324677e-18  3.4278086112055775e-17  2.5880327743145649e-19  9.3422524407982961e-20  2.7181153954333869e-24  1.6458116165652426e-24  2.2212953147709452e-19  -6.8545688219817495e-18  1.1960986465833375e-16  -3.3354728207558896e-18  -2.6796586032672881e-18  2.5705071750879390e-16  1.6374952865867307e-21  -3.5387244851283619e-17  -5.8706240156677861e-16  -5.3754518211078697e-19  1.9338293636744778e-18  -3.0262051272792120e-20  1.1162277265075725e-17  2.3704292699222343e-18  -2.7621112317532810e-21  -4.3147712640147408e-21  6.5156013725535178e-17  9.5432437122909528e-16  -7.0197455373346039e-17  1.1881177230402611e-20  2.9999065852693978e-18  3.3134117316279697e-22  1.9733258706342504e-26  5.2213658982876336e-28  6.9335230402782510e-17  2.5816642216977301e-17  4.9960081904748281e-22  -2.2522539157709665e-29  5.3184801259182746e-20  -4.9445838350752443e-21  -3.8776760373438338e-22  5.7504483599904560e-18  4.5292586786733524e-18  -8.6547572005714163e-20  -1.0682512968591474e-16  6.5378427400811730e-18  4.7392071767872838e-17  1.6255101571819519e-23  4.2398940372004656e-20  -3.8693077418582573e-21  -2.6490561131639785e-17  7.9428964613395318e-20  1.2000872315815463e-17  1.1008592091402434e-15  8.6732187442526421e-18  1.4252242101388428e-17  -1.8928088901157488e-19  -8.4489780186495532e-20  -8.0114788249160425e-19  1.2850115990574638e-19  5.2721687270363629e-18  1.3567259051753226e-18  -2.5838463231829072e-18  -1.0702229750173175e-19  1.8379518722585788e-22  2.7340949741467728e-27  7.9633291991997561e-27  1.3469292099988864e-18  3.9164521785107054e-19  1.4408710462865647e-20  4.0460651385727823e-24  7.6045545504736476e-26  -1.3204712818309154e-17  -1.8942306257852825e-24  7.8160301148344667e-21  3.1090472459692103e-17  4.7721597898106604e-17  -1.9060814160396422e-21  4.0704669049996798e-19  6.2884780950251328e-21  -3.1088564524187467e-16  -4.3611047336911443e-17  1.1530964172230470e-18  -2.6713724389543133e-16  1.3369792044714480e-20  1.0538122282059943e-15  6.1150263936913092e-17  4.1367513106094568e-16  -6.7867473306027662e-19  -1.5883752032230957e-20  2.0135916761089377e-17  6.8739721935541251e-17  6.9744689909360517e-17  6.8972122500722456e-16  -3.2951044918403896e-17  -6.0668402846750521e-20  -2.0594423285423225e-16  -4.0543530685451881e-21  -1.0683635966024246e-17  -7.3886786489991261e-17  5.9480707467244551e-17  8.2852465836640872e-21  -1.3134349561422536e-20  5.8386253517995694e-17  4.8700164106606654e-19  -1.0526477118599950e-21  1.4223481175005692e-15  -2.2162926439458317e-22  -1.1735546907578819e-19  9.0534179164332576e-21  4.2266680539670733e-18  -2.5605042103223831e-16  3.5495923414496900e-17  3.7502727214131028e-20  1.4168537605077581e-22  -2.4782432950473815e-16  7.0468357418746965e-18  6.3912565876123065e-17  -7.9679741540513887e-16  9.3694830231212970e-16  3.5505834666285665e-18  6.4654073938617719e-19  1.4733072255667273e-18  1.1293086373978783e-18  -4.1941014070311067e-20  -2.1629346014909332e-20  -1.3498730987685515e-21  -2.5797261479258124e-19  2.9359094051476266e-18  4.6553661743532737e-25  -8.9139527859776968e-19  1.1972643841355686e-16  4.9399281058224298e-18  -1.2149181471081096e-19  -6.5778640924830010e-17  1.1391032315959323e-16  5.0423176425977999e-23  3.6811157599626050e-23  1.3083826243847905e-21  -3.0857105695373941e-19  -3.7952290140235144e-20  -4.9872069718294778e-18  4.3368840003387375e-26  -1.1800689243627280e-27  -3.9243586114166204e-29  3.3763336089869027e-22  3.3056856966460188e-21  6.1736666193656647e-17  7.4928801085164196e-17  5.2621767518779759e-17  6.5631039342315845e-18  6.9305640244650725e-18  -6.1744593525518171e-17  1.3023255604969385e-17  1.3475579134689481e-17  -1.8926951270437316e-18  6.7771697982400841e-18  2.5753129655744513e-18  9.0221036366551401e-17  1.8843341510405409e-16  7.3530105220102627e-19  5.3851613620533518e-18  6.0682466275843535e-21  -7.8178669524868286e-23  4.8343759183985140e-22  2.9265871135938997e-22  -3.9416694599962250e-23  4.6402290716455404e-22  2.0092341533925594e-28  3.2275613217173449e-27  3.8793474203956377e-24  -1.7574366986781802e-29  6.2657058654791519e-20  9.5160241306085630e-18  2.3787262862026216e-17  4.7661336816431663e-17  1.0288253784873414e-17  4.7509829405596128e-19  -1.3786635037797813e-21  -3.2957486259894237e-21  -7.3317819540875874e-18  2.7190961550897052e-17  -9.3762594205778228e-21  2.5439494784102311e-18  1.8848592203573840e-17  7.8160332723481292e-18  1.4684060341863587e-18  1.7901127653713373e-19  1.0231534209166380e-17  5.6209368947441921e-17  -9.2010414714718279e-19  5.7969248241614695e-20  -1.7751543254000332e-19  -3.0262038111844675e-22  -3.3811139579469535e-17  4.8754480152743819e-16  1.2947200258258410e-23  5.1728239441194792e-17  7.4341699253457872e-20  -9.1435663595896809e-19  1.9583269019546621e-21  4.7344544306990492e-21  3.2626308804441463e-22  2.4006584409149707e-24  5.7711815559270974e-20  -1.9876636908261569e-17  -1.5871895930122085e-18  4.2705452004274156e-17  3.8693251160622924e-18  3.7386876434141240e-22  -4.0808941879124391e-16  -2.7115253689331001e-19  -2.0636427436279198e-20  -6.5897787972619210e-16  -1.7296302214049834e-16  4.1018563476829796e-21  2.2012711741379540e-18  1.9219837654882102e-19  1.5535071422466915e-20  -5.9944765580842478e-20  -8.7849173019069454e-17  -7.7302553846697734e-19  4.7155862908063548e-18  -3.4540479753906813e-17  -1.5723328044895364e-17  -2.0941961002605714e-16  5.4926969259767246e-18  -1.4137785030844758e-16  2.8413597423970331e-16  -1.6489419796643822e-19  -1.1999990436795149e-19  -1.1567164965996742e-19  -4.7683261839402486e-16  4.9585365035266746e-16  1.0567430275670664e-16  -2.7589274533059934e-18  1.0917846803842255e-15  2.8332389871400839e-16  1.3724993460469061e-16  -1.6518555599169740e-22  2.7618145378688824e-19  -7.3298716428327308e-17  6.7191402382162664e-17  -1.3876876240214206e-18  3.4457498372774746e-19  1.4518969776360734e-19  3.2113226662339234e-20  8.2278062275065791e-16  -2.9053469839808231e-17  2.9613427382415652e-20  2.8294864843706464e-21  -1.1411478802636911e-17  -5.9986734385640228e-18  8.3439515080895554e-18  8.0957869117595613e-18  -1.1264971908995482e-16  -4.9418297609018411e-16  1.6565579337197519e-17  2.2635946509305514e-18  8.7212193187735775e-18  2.3901792072662426e-17  5.2813963900019669e-18  -1.8468102654013095e-20  2.2685760751877812e-21  1.7900438959323920e-21  -4.2725542694105338e-19  -2.5253372739112193e-20  3.6298694066590434e-19  -1.5548337473877228e-28  -1.8241979588264055e-28  1.6666392972876994e-20  1.2568776100227761e-19  1.1822967249443476e-19  2.0128526160132040e-25  3.6703826460223570e-25  3.2660856741672544e-26  -1.0332959948905667e-17  7.0770147558894370e-16  1.1567073477409748e-17  -5.5753593074344908e-28  2.2557861582471825e-21  5.1775090061846654e-20  1.1825243054815382e-17  1.7018909958454860e-21  1.7774465574576565e-18  1.1820156993100693e-18  5.5954098932723350e-19  8.7324359033003968e-19  -2.6214991529778108e-16  8.2650929127121121e-16  1.1928618832490982e-18  2.6454067195609731e-23  1.4157495172004536e-27  5.4401035529066999e-27  -1.0960904244405265e-20  1.4946233869904049e-17  2.5201651212659664e-18  2.8444432680727985e-18  2.7258881685715528e-20  -2.5880876393388180e-19  -3.1938903563647346e-16  2.9974565100672788e-22  6.5726116028891078e-16  1.5372843586060471e-17  1.2558920553106307e-17  1.1339140282844972e-24  4.1909639445942173e-18  -9.8245001139800555e-24  5.3564721243085477e-20  6.7062551872333609e-17  1.8735901266449818e-26  5.4217357455609562e-17  1.0149320164549359e-16  -3.4891253102576839e-18  -7.9225128085345796e-18  2.7142618524802994e-23  1.9860513090689060e-21  4.1035796994099732e-17  5.5976949964823256e-17  -8.3686052461265375e-22  -3.6318934440447977e-21  6.7225279615180596e-16  4.8576964964326078e-21  1.0635521024388788e-20  -3.1525250312024549e-18  3.8044104442466845e-22  -4.7243980611857877e-21  -1.3856106270144710e-17  -1.4946644373433131e-16  2.3477748736277411e-21  5.1385871986536498e-16  1.9483737643857925e-16  1.1457612948947820e-15  8.6799142189419966e-16  1.0014124035450894e-20  1.7444667677072317e-17  6.5929567511548810e-17  -5.3467363935070535e-23  -1.1437963053469401e-24  6.4201604788093486e-22  1.6166536764996048e-21  -1.4050657486558296e-21  -6.7412781518299881e-18  -1.4399555525811773e-19  2.2237631540998893e-19  -2.1938947661228874e-20  3.9340217658598398e-20  -9.3154166150332851e-18  3.7459640083231264e-19  2.0416448784597023e-18  -6.3907866085199272e-16  3.9131130637483804e-17  7.6654406357119681e-18  -4.0710487014118884e-19  -4.7213806216322509e-16  -2.3105387482678682e-16  -4.3437221001563750e-17  -8.3668842983229794e-21  1.1865506938514580e-15  -1.7400893688634506e-17  1.8232134827053370e-16  -9.7972494588375399e-17  1.0674158037407100e-22  3.2951753237268350e-16  1.7528053717559165e-17  9.0261808390461783e-17  1.5324288692448705e-18  1.9915329232598276e-19  2.7372938960411203e-25  8.0171971085672071e-17  6.1262801367602124e-19  7.2629235671479822e-18  3.9777815905499331e-20  6.8620285317962250e-17  1.9413426644873303e-16  -7.0450327596255653e-19  -6.7770307811665620e-16  7.9443370830814466e-21  -6.2404166832509093e-20  3.3172778158223974e-16  2.8460280860298679e-17  6.9823038530382986e-17  -1.1148460298543585e-20  -8.6247730982761367e-23  -5.2833962335412878e-16  -8.6320323500870630e-21  -5.9831449762301079e-20  2.7463169176072643e-17  1.3441145161343562e-15  -4.0560351680172151e-28  1.0069291585106183e-18  1.3220293958371295e-19  -6.0945044266640524e-18  1.4924296594636948e-25  1.3328285420724789e-17  2.8594953331188175e-17  -1.7122585639604611e-17  1.4247335626957260e-15  2.5184388754946834e-16  3.7631266891792035e-22  -4.7229931289188542e-16  -2.6004201502059322e-17  -3.7151756684717790e-17  -7.9174201430792384e-19  5.4962555155871322e-17  6.3733723926036305e-17  4.0727733841890256e-18  -1.2773821584448480e-16  -3.1006023024495915e-17  -8.5586588347817506e-18  6.0324977642431964e-18  -1.9935062562414459e-16  1.8922270752383754e-21  1.3535290008486723e-20  4.2908896228496298e-24  6.0100315820053637e-19  8.5518331558105914e-19  1.1155255755715824e-19  -8.4130122515930434e-18  5.6813842624519106e-18  4.2477098735667312e-26  9.5453055876432901e-18  -1.7215197599059030e-16  3.8716278480326679e-22  -4.9283488319028962e-21  1.0740215150042125e-15  -3.2203231887013741e-16  2.0261581455456848e-19  2.9377757672859440e-18  6.0634889020418946e-28  -3.0027081989185828e-18  6.8833540555643785e-17  -2.4211559985107098e-19  -4.1205115428935102e-20  5.5962448910385501e-25  4.0207582057243690e-22  -1.3361023154765125e-18  9.9593467958604222e-16  -9.5279414178768236e-17  6.2121184177027648e-17  -2.3248900426025623e-16  3.3403902286276060e-20  5.9682408456413409e-17  4.2467603503921304e-25  1.7791866294372340e-24  5.0451168825402682e-17  1.8379349791983056e-20  1.7480377911653794e-16  3.4267408080952186e-20  1.6988655781960358e-16  2.2328494462419797e-23  5.0977099145566511e-18  3.3359559021463523e-18  1.1548241200613170e-18  3.3965876746321890e-19  3.2173575895759894e-19  -5.0875993983954673e-17  -5.0167362908744658e-18  -2.9771589299408196e-16  9.4366655271423964e-18  3.0624627603633336e-22  -3.2550536355941164e-19  -8.9679082368466157e-20  1.4679252626440419e-20  1.1096597434026858e-16  -9.1815747682972884e-21  4.6660847336554672e-18  1.7332274163445876e-18  4.0615303971916241e-16  1.4051078522033735e-19  3.8384687153055024e-17  1.0220874818746670e-19  -1.8811653888205081e-18  -9.1564722871772937e-19  3.1646190933846564e-28  -8.8029120123974598e-21  -4.7531835370030467e-19  -2.3007180906755571e-18  2.0430237773734443e-18  -9.8101056423000198e-19  4.2942521372960421e-23  -6.6843975783384085e-18  -3.4546859343121473e-16  1.0087103175819560e-17  -4.8363546547065579e-30  7.4746608425007685e-29  1.9650861213166916e-21  3.0122779561601943e-18  4.3759267234720264e-18  6.2165579131570626e-18  -1.0568666591724389e-20  -5.3725339310856474e-20  2.5832443468285506e-18  -5.9664102742217795e-19  2.5700827360613361e-18  1.2695959057937894e-16  -4.0125023426407525e-20  5.3665344147640915e-18  9.9961481433886525e-19  1.1967483423627820e-21  2.0152022379436267e-21  1.5399338427930127e-18  4.6028599603330244e-18  -3.7046506843660216e-16  6.8651990901601399e-26  6.0675903395952867e-20  2.8890344825946603e-18  -7.3189029938221954e-19  -7.0472797736226070e-20  -3.3282652530909498e-17  4.2752703528805233e-19  -1.6479288638338090e-18  3.6180131140930774e-24  6.9081971480881179e-19  8.5130592162565690e-29  1.3316778611251393e-23  1.8050628552731051e-23  -3.5727742732902396e-23  -1.0144617546047906e-20  -1.1115333522960416e-19  -7.0886699819587477e-21  -7.3483522659772003e-29  1.3013503755341735e-19  1.0607930349819472e-24  6.8695214233783013e-17  7.2447776139684352e-17  -4.4906140092640617e-19  -9.1015767393578145e-19  -6.4193251391274733e-20  -2.0786513162011465e-17  -1.1012648648566895e-20  -8.4326718885708353e-20  -2.6701692610412437e-18  -5.1467021421037829e-18  1.2613443437738717e-27  5.2829316839564962e-20  1.1916291283071183e-17  3.5044157940398988e-18  -1.7985651002761425e-17  1.2910611677004767e-20  1.9042464265313317e-26  4.0400773879135621e-17  9.0325641158394421e-16  6.9366648585706743e-17  6.6493865277591400e-18  -2.3752287781171037e-28  -1.2645517032176263e-16  6.7086002038327181e-17  7.3786100680970965e-28  6.5018341286609083e-21  3.7193789472445889e-20  6.6528986690861128e-21  -1.5581851123587966e-18  -3.5540164873306269e-21  -6.2977120528535796e-16  -5.1145326117789887e-19  -1.4425297954736322e-20  7.3063183118895922e-17  3.0719744983665889e-17  -9.2706710185412950e-17  -5.5201605110828426e-22  4.3181417275523367e-27  7.4595278790664627e-18  -7.4811920132443042e-17  7.8917665430999395e-18  3.4760862560581390e-20  -2.8720717879415929e-21  -7.3020838909361103e-16  7.0094244426365269e-17  7.6015453821011440e-17  -2.3483809014954390e-16  5.8510216977675114e-17  -1.0455708895637235e-16  1.8484330070449722e-18  -1.5113938793091096e-20  -6.9804677115813236e-23  8.8359894375901627e-18  5.2317801438894673e-17  5.9780719422243631e-18  7.5342738359335614e-18  6.3949711490992953e-18  1.1052349101960764e-17  7.4506131562601004e-18  -6.1128723697299644e-26  8.6549438145370539e-28  -5.6462621662026494e-16  2.2701415282952195e-16  -5.4553795040768363e-17  4.3745516456878448e-17  5.7726599196293200e-16  -9.5342350506104001e-17  -2.7774907764258543e-23  2.4181001445624913e-18  -6.1588858741281280e-19  3.5834901130098369e-26  -1.1434140253890164e-19  -9.0637666487469541e-18  -3.2791575825637599e-19  -1.8149725930461422e-17  -4.7195719142586548e-18  9.6581036397479675e-20  2.8876663640345378e-21  6.6888250982430956e-21  1.3371136573120822e-17  1.4108680649817475e-17  -2.3579318103758783e-18  2.0927104826559722e-19  -2.6279048682957149e-20  1.0524625606447502e-17  1.4328093549870086e-19  -9.2966675652381600e-29  4.5353150496741693e-17  2.9376142775624589e-16  -4.7473256954040297e-20  -2.9763572812300001e-18  3.5369777063506571e-17  1.9613862799213982e-18  -2.0274270790779933e-20  1.1174716351726643e-17  2.6318873925990560e-26  5.6215190159678372e-24  2.6096027694817846e-18  -4.5499785935233751e-22  1.4468128917585183e-15  1.4117335380133829e-17  1.1471646543584767e-19  4.7904462120177975e-19  4.5500256027499313e-18  -3.5253758530882418e-18  1.3948345595884907e-21  -4.8274422698966148e-16  3.5664097472130642e-16  -9.3865588757609922e-17  -3.9285456421085339e-18  -4.4246551834361149e-22  -9.0508900912428788e-24  1.2398395406064078e-19  6.2067969732883771e-17  -1.6632640648158198e-21  -1.7500005315633770e-21  7.9415088112843445e-19  -2.1549900313091827e-21  4.8466653546894210e-22  -8.8279119483325581e-21  1.2732065443970302e-21  4.0835727345474639e-22  2.5350462683158821e-22  1.7264452554649382e-17  5.3761190785458085e-22  -1.0033304952135910e-21  2.3519171745961631e-22  3.8291703270631224e-21  -7.1521300057963349e-26  -5.5728526341647444e-24  -1.2939342355794805e-22  6.9718300693207749e-17  6.5788475117234723e-17  5.5704499106125982e-17  4.8063003014901978e-22  5.1789583480532690e-17  3.8843387568474445e-18  2.0164179441291741e-23  1.0954840722151901e-18  3.2334200106570100e-22  1.2316137573918675e-17  1.2440340338117588e-20  -1.6632025113257674e-29  8.6982832303277722e-18  3.2929214864679260e-20  1.0024684385243223e-17  7.4961518091372415e-18  -1.8342491667662250e-20  -1.7518017381531925e-21  -6.4278295113896654e-22  -5.7414898967354889e-22  3.4680365978676813e-17  -1.4692691207835638e-21  3.4871962153353420e-17  -2.0804327082030437e-21  -3.6503777092078388e-21  -2.4529406549282757e-29  3.4331041331898687e-22  3.4436794759676350e-20  7.1505354541242083e-17  1.6334273129071512e-21  1.0741049949420848e-19  1.8877635187977936e-21  4.3616946883092137e-17  1.2062165270767001e-15  3.3171163371293421e-16  -1.9767550500107896e-19  9.7370372556371944e-18  5.4743960179370004e-16  3.7282240681003481e-17  6.2683164940812445e-19  4.3236127299223033e-16  1.9038151658069607e-18  2.8522109721899415e-19  4.0439758250718523e-17  2.7004810088726062e-17  2.0836754225157423e-17  5.5185473521768370e-17  5.4058227382165944e-17  2.5546960021617122e-16  -2.1845960341542664e-23  -1.0207505645462713e-16  1.7546556090154882e-18  -3.9311793154232942e-21  1.0884734873300031e-15  -3.4318322694579131e-22  3.2395297669088899e-17  5.1774208875105080e-19  -1.4171941825358334e-16  9.0489818399926469e-17  -7.8292577335092015e-16  9.3036538985170576e-19  1.3711745725937807e-19  9.7812680138390674e-16  6.6088831966020485e-16  6.9360372719402712e-23  4.1203998958643036e-25  8.8664194210711373e-16  3.5336159639077812e-24  4.3704503366226478e-25  1.1214523296215914e-16  -1.2577497656590716e-18  -2.2306325970903122e-18  -1.8788273540360950e-17  8.2683452588457569e-18  -9.9123659564070299e-20  1.5338718429256218e-17  1.0026271606831383e-17  -3.9996023574821011e-18  -2.9764493088441425e-18  -8.1887208639379023e-19  -6.8579008191141496e-19  -2.1374946627250379e-19  1.3075799296731052e-19  4.7807238215395231e-17  2.4613404945796229e-19  7.7599254445891979e-18  -1.5607398930853564e-19  3.4393862588262751e-18  2.2354049155320799e-18  -2.5029007689528915e-20  -6.0078322506717349e-18  1.3110988337823787e-21  4.7778094529555389e-22  3.1943668361712870e-19  1.0441398390647128e-18  2.5572909332549384e-17  2.1312495904330881e-17  1.1791581327407665e-17  -1.4559511474342546e-16  2.5474408065797393e-25  2.6201083121818064e-20  1.9145313558281164e-20  4.7668428093084150e-20  6.8648623368872214e-20  2.3151572497409951e-20  -2.2932198346333933e-19  -3.7303605305921434e-16  9.2446994731045548e-20  -7.8528879903646757e-20  4.8850570260191889e-27  -1.7041926442229121e-20  2.9560577465401104e-17  6.4079039504372472e-17  6.3873684842616486e-17  -1.3775399375058732e-16  6.4910383366721415e-24  -1.1097926307392085e-17  2.8044559365531050e-19  -3.0240564056818795e-19  8.7977951285182403e-16  7.2626338853086672e-23  -1.6963782867508272e-18  -1.1120722513135444e-18  -1.5698063029111785e-20  4.4631598240562176e-24  1.1305045332364698e-21  4.2399433333891563e-17  -4.4521907579846424e-16  -3.4845857821461860e-16  5.7274700957412941e-17  -3.1925739513339534e-17  -1.8045045276404643e-17  4.3938549586280363e-18  1.8873546080708953e-27  1.0122564528573881e-18  2.6758057913722133e-17  4.2798985340134307e-17  5.0210896743999705e-17  1.5881283524707808e-20  1.6118058073388736e-21  5.1732905247891875e-23  8.1833584436070744e-22  8.920