<?xml version="1.0"?>
<VTKFile type="UnstructuredGrid"  version="0.1"  >
<UnstructuredGrid>
<Piece  NumberOfPoints="6486" NumberOfCells="12696">
<Points>
<DataArray  type="Float64"  NumberOfComponents="3"  format="ascii">0 5 0  0 0 0  5 0 0  5 5 0  2.5 0 0  5 2.5 0  2.5 5 0  0 2.5 0  2.5 2.5 0  0 1.25 0  1.25 0 0  1.25 5 0  0 3.75 0  5 1.25 0  3.75 0 0  5 3.75 0  3.75 5 0  3.541666666666667 1.458333333333333 0  1.458333333333333 3.541666666666667 0  1.875 1.25 0  3.75 3.125 0  1.284722222222222 2.326388888888889 0  2.683189655172414 3.767959770114943 0  0.9375 0.9375 0  4.0625 4.0625 0  0.7252209595959597 3.026357323232324 0  2.763480392156863 0.9129901960784315 0  1.875 4.345238095238095 0  4.345238095238095 1.875 0  4.192708333333333 0.8072916666666664 0  0.8072916666666665 4.192708333333334 0  3.368055555555555 2.326388888888889 0  0.6837606837606839 1.738782051282051 0  3.285485245626782 4.324328415208927 0  2.551239698778062 1.693130150610969 0  1.827256944444444 2.868923611111111 0  3.464875022477093 0.6813924607921316 0  1.942880513719175 2.059558626187995 0  3.04563492063492 2.971230158730159 0  4.375 3.4375 0  2.13639445139758 0.5994472256987903 0  4.272228422619047 2.606956845238095 0  0.625 0 0  0 0.625 0  5 4.375 0  4.375 5 0  0.6400043240752655 2.384646170113389 0  1.347691225855598 1.660875475110776 0  3.515783617857982 3.723905460714006 0  3.125 0 0  1.875 0 0  0.625 5 0  4.375 0 0  5 1.875 0  0 1.875 0  0 3.125 0  1.875 5 0  5 0.625 0  0 4.375 0  3.125 5 0  5 3.125 0  1.489644181965304 0.6007147273217681 0  2.054597701149425 3.742302955665024 0  2.662520990197781 4.39452575763237 0  2.415835363784578 3.165530021913244 0  0.8679986894865213 3.602373689486522 0  1.267459753787878 2.886186079545454 0  4.099702380952381 1.365327380952381 0  1.316964285714286 4.438244047619047 0  3.7915135293491 1.959691594758709 0  2.875141124191255 2.118761176511833 0  3.00418010501169 1.397414179299248 0  0.4081721322167092 3.410647930198662 0  0.4166666666666666 0.9375 0  1.014190407998288 0.4422301359994293 0  1.383260571305984 1.162718286082048 0  4.53125 3.90625 0  4.453125 4.453125 0  3.772848162504192 4.48678272083473 0  2.8125 0.404329517041716 0  0.4538690476190476 0.4538690476190476 0  2.305461739347387 1.04517007574828 0  3.771263799175824 2.624190260297553 0  3.229617768018734 1.809956994202883 0  3.780190884441317 1.025307111692601 0  4.646337365591398 0.9375 0  4.537623451379149 0.4609485750426037 0  1.200477888421151 3.934852888421152 0  0.3536626344086022 4.0625 0  0.4623765486208503 4.539051424957397 0  4.0625 0.353662634408602 0  4.560525106689535 1.390989100915847 0  3.958439078571988 3.619844539285994 0  4.672619047619047 2.1875 0  2.1875 4.672619047619047 0  1.862808494877602 3.325947624431087 0  0.3268135998175443 2.8125 0  4.674181280189791 2.8125 0  2.283233994935276 4.138623547175983 0  0.9375 4.677879119362977 0  3.08488061581743 3.469889594488945 0  3.113427375573758 3.913955730709506 0  1.652847799068813 3.950848935641292 0  2.932652662909449 2.550542739521724 0  3.311350648514189 1.088831994878698 0  0.6770833333333333 1.295851139601139 0  0 1.5625 0  1.047214787840024 1.96818092308125 0  4.183331482095785 3.03958703580843 0  3.4375 5 0  1.071307777252521 3.246275861010018 0  0 2.1875 0  0.386576856303419 2.03125 0  1.713862716483534 2.439783116849799 0  1.775396256975935 1.665976816304977 0  2.231236976948428 1.443917394671254 0  2.373900732409897 2.086930260150635 0  4.114918237574474 2.221646174618671 0  3.661302567757379 4.099620139144836 0  3.378215938602977 2.734494874063393 0  0.9842097536079312 2.597286741306247 0  1.642795138888889 4.672619047619047 0  4.0625 5 0  2.099458800960004 2.567446522665629 0  2.616202751603346 1.297895893940078 0  5 4.6875 0  0.9937554350075428 1.512592975947215 0  2.8125 5 0  3.002695327068194 4.614055254615477 0  3.205627424097207 0.3852436382721472 0  1.678616581261621 0.927556612265266 0  3.365326698305438 3.196943731162083 0  1.554834936170314 3.120009882655813 0  3.108408340729323 0.7797187795784133 0  3.684368918102174 0.3728877601163941 0  2.716214835303553 3.39276351922003 0  2.37718583984784 3.551973401560441 0  0.3750662445374837 1.52191994866787 0  2.679073487930202 2.844160731602957 0  1.557635869750078 1.991068682985722 0  1.812595698561088 0.3839273018252746 0  2.512014721281916 0.6320641118792227 0  2.1875 0 0  2.349973454443689 0.3189980586887866 0  4.6875 3.59375 0  4.636052949022233 3.178355898044465 0  4.6875 5 0  3.345485909784306 4.665765449101383 0  0.536727472389443 3.749603193819277 0  4.349541499640203 1.116201826262156 0  2.886559045931982 1.774013674579691 0  0.6770833333333334 0.7142857142857143 0  1.5625 0 0  4.120842096538671 4.628726497527622 0  2.176157474177018 1.793470423744689 0  2.175650736889416 2.909863021769539 0  4.036616464259081 1.709699085170981 0  3.887974623473683 0.6492597046022868 0  3.4375 0 0  3.70675699592552 2.289666624772415 0  4.697265625 4.208984375 0  2.815177577303495 4.085937578239174 0  4.672619047619047 1.730733296184288 0  4.6875 0 0  5 0.3125 0  0.3125 5 0  0 4.6875 0  0.3276089296588581 2.484526834811734 0  0.712433309515852 2.065138854645612 0  0.6376435912223634 2.711473454001295 0  1.184991292170422 0.7222504400947201 0  1.31884329779317 0.3206944232264773 0  3.683609198994263 3.44428698533042 0  0.3125 0 0  0 0.3125 0  4.231797269642997 3.789141808928991 0  1.564375596050781 1.425998687184973 0  2.007640894175573 0.9032106925568466 0  0.955125897558294 2.276666098587227 0  1.43898735721003 2.611310720271951 0  1.954491523717513 4.040700257877075 0  1.752947649777421 3.652439445419346 0  2.509575750247638 4.678021307664052 0  4.687194709705067 2.499965519538002 0  1.5625 5 0  0.9375 5 0  5 2.8125 0  2.1875 5 0  5 1.5625 0  5 2.1875 0  4.0625 0 0  5 0.9375 0  2.8125 0 0  0.9375 0 0  0 0.9375 0  0 2.8125 0  0 3.4375 0  0 4.0625 0  5 3.4375 0  5 4.0625 0  4.010848109290813 3.306446973933037 0  0.3077461147713075 3.119700563473354 0  4.6796875 4.6796875 0  2.333079012424948 3.845757959077508 0  0.7829771267899832 3.317744656243421 0  1.159100632608513 3.532487125138763 0  0.799066251840424 3.893573750162776 0  1.57326499580282 4.255438189102632 0  0.7309366047093668 0.2991402264438908 0  0.3054777494262156 1.223275888123843 0  4.027475154280377 2.78211326942427 0  2.35270874745988 4.426658168476266 0  3.474236283732569 2.021154281686229 0  4.401414236174444 2.329446628171927 0  3.39403781747337 3.987097102903034 0  1.077524329801934 1.214100792470484 0  4.065611571711903 1.066085524514197 0  2.165399002716117 3.335637450367864 0  3.007639563081306 1.093684039371638 0  4.030818285732145 4.351883315180857 0  3.504115222530889 1.739284194222036 0  1.224503368215566 4.712091441401919 0  3.805634204685714 1.321528442399996 0  4.319233123479386 1.573547993867769 0  1.024007670021325 4.394604704797005 0  3.776400432023095 3.839003324979723 0  2.991819819453308 4.320567175146181 0  0.9782797534072181 2.886406017887129 0  1.763835134082104 0.6602345487826022 0  3.765182288741625 1.631193038541544 0  2.267959593989681 2.345053543725764 0  4.412434895833333 4.168294270833333 0  4.4072265625 4.7255859375 0  2.791493971314009 3.11210833271929 0  3.408766223032414 3.469500900677365 0  1.915147569444444 4.725484476461039 0  2.070301968506271 0.2605666686358055 0  2.767932250651506 1.530295992695836 0  3.280065043173439 1.364863281105779 0  4.45101570110842 2.974157152713635 0  3.521928862999512 2.96990445010402 0  2.552921961347576 4.008414007169315 0  0.2682955376854191 3.657555015841003 0  3.084522868361304 2.310593316718068 0  2.669255823227708 1.939379494498064 0  2.615884629473921 2.238841231570381 0  1.405652091971449 0.8877813821442277 0  3.25151486618811 3.68536115104276 0  1.963741569810629 2.331207252264507 0  4.017297980292599 2.486269171379106 0  3.869168920841219 4.748188103831625 0  3.596868753579134 4.77342723825056 0  2.41262958240343 2.764128584995838 0  1.266750578673391 1.404747710001619 0  1.559243962241121 2.85146506328516 0  3.128799423834764 2.052081657715259 0  0.6770833333333333 0.9778025793650794 0  0.2083333333333333 0.78125 0  1.978224492765132 3.087074731032578 0  4.051448850909273 1.969392119104174 0  1.320577095006813 4.172234780971559 0  3.214261103850064 2.534397293281829 0  0.2635729089754111 1.779234736680035 0  3.510775680035133 4.460728640112889 0  2.603081405968802 0.2432579385496493 0  2.866341315154884 0.6662105505481998 0  3.000919221100777 0.2270278495648781 0  1.298858304121393 2.05917319923859 0  2.020292299736597 1.589794568392338 0  0.7401688396476035 4.470780315741533 0  0.6721783535561408 4.733125588707921 0  3.753712482075402 2.874301339727514 0  3.557348205914658 2.491958694539413 0  1.094565978195436 0.2011034254079851 0  0.9338148378011396 0.6833568465908735 0  2.945530578578538 3.701798332963805 0  3.111707186654356 3.216904195825605 0  1.341791111822685 3.293123262233967 0  1.632939924064587 1.184895891095613 0  0.6335477978936732 3.517393619499591 0  0.5576014611130192 3.210998966942492 0  1.564344196470102 0.3630498725895039 0  2.75362450242839 4.626680495816594 0  3.571304405229554 1.192452351107437 0  3.522934592621944 0.9359134489437148 0  4.453125 3.671875 0  4.765625 3.828125 0  1.055906321410838 4.14310472322957 0  4.795146539102229 0.46875 0  4.767156345199235 0.7178596932040019 0  0.2048534608977711 4.53125 0  0.232843654800765 4.282140306795998 0  0.5393715189906129 4.270810883024032 0  4.329922600274667 0.2750645887059072 0  4.275515096738972 0.5448389557295173 0  4.477747423652795 0.7252838358993123 0  0.2002829820452772 0.46875 0  0.4352678571428572 0.6956845238095237 0  0.5007241582667088 0.2123388122114133 0  4.672890923830735 0.2500902110494848 0  0.4308009280819452 4.783624996516437 0  2.104871305393774 4.438653689007242 0  0.2274454167838428 0.2274454167838428 0  3.446466574593436 0.4359605369011901 0  2.12354112127588 1.217588426759619 0  2.309175236825235 0.7888355970690434 0  2.556178570281936 1.054299163237582 0  0.578683248637
[...]
<PointData  Scalars="f_800-2"> 
<DataArray  type="Float64"  Name="f_800-2"  format="ascii">1.9897493336795247e-12  4.8396083001574661e-12  1.8750269004380060e-12  1.7907917654172904e-12  3.8239293080114085e-12  1.8708849382443230e-12  1.9280799965197446e-12  3.8555644814379567e-12  3.7818475835736922e-12  4.5486298010036016e-12  4.5341425132744625e-12  1.9045587804911624e-12  2.9150064603663552e-12  1.8705247141768683e-12  2.8802785195541982e-12  1.8783498911985546e-12  1.9183964189695051e-12  3.0452213571938995e-12  3.0911762448987465e-12  4.2245653745667349e-12  2.8878920635055472e-12  3.9728064455140467e-12  2.9112526239078268e-12  4.6390180384082736e-12  2.5526084886886273e-12  3.4845998544009981e-12  3.6379321839824933e-12  2.4538189626059001e-12  2.3971220705306448e-12  2.5150896240497917e-12  2.5908290220168567e-12  3.1932191801726879e-12  4.3186027241021962e-12  2.4621280285565012e-12  3.7959881068444163e-12  3.6011130359636868e-12  3.1027558504413279e-12  4.1198364090091903e-12  3.3957735948482867e-12  2.3821083298571982e-12  4.0632551557395415e-12  2.4588378087003794e-12  4.7479331292957264e-12  4.7521274487111516e-12  1.8791394047344176e-12  1.9235827948679111e-12  3.9372612642109933e-12  4.3737366069907242e-12  2.9157050089025219e-12  3.3629350740836949e-12  4.2157139384384395e-12  1.9655510986745465e-12  2.3718179915532427e-12  1.8653338666930657e-12  4.2431878155945143e-12  3.4051262163970820e-12  1.9217597135180254e-12  1.8725689264155691e-12  2.4783125068564726e-12  1.9238633184412540e-12  1.8723516946902699e-12  4.4265649326662773e-12  2.9363102646720109e-12  2.4049838555836023e-12  3.3890562553665204e-12  3.0378242432638835e-12  3.5944801366116584e-12  2.5929041796931538e-12  2.3694177565893031e-12  2.8503837688432700e-12  3.5662708301102434e-12  3.4650865302668550e-12  3.1874464819201992e-12  4.6659056938750905e-12  4.6297859463592908e-12  4.4715215602441702e-12  2.2542947484885112e-12  2.2284249587945160e-12  2.3334714884493079e-12  3.6025973027240254e-12  4.7737143228754637e-12  3.9602863382608262e-12  2.8739440836193590e-12  3.2977724454906893e-12  2.8526153244199704e-12  2.1495561182901477e-12  2.2400061211388878e-12  2.7721453836964735e-12  2.6628729044573823e-12  2.2765520284915588e-12  2.6246043202902570e-12  2.2140991856074616e-12  2.7038615169422069e-12  2.1296435321564749e-12  2.1869247312908706e-12  3.2610140898227914e-12  3.6389666647521897e-12  2.1291564183824664e-12  2.6151507979913380e-12  2.1645120658123414e-12  3.1509621931094052e-12  2.8006468895238222e-12  2.7646227649450186e-12  3.5168528983878035e-12  3.2251427666979518e-12  4.5315972289213052e-12  4.4074483566894028e-12  4.1921086719010838e-12  2.5403150450296528e-12  1.9215936583479312e-12  3.3187198155530874e-12  4.0588942925648700e-12  4.1623413288635476e-12  3.9018252436294534e-12  4.2621416602133691e-12  4.0085214066909844e-12  3.9088463631525600e-12  2.5840823254266319e-12  2.6448240687016909e-12  3.1844374337981533e-12  3.7933105847359809e-12  2.1720461818450323e-12  1.9192479328800262e-12  3.8286497018236219e-12  3.7515778565484388e-12  1.8545736586145650e-12  4.4382939073275555e-12  1.9270019804031560e-12  2.2311732719324321e-12  3.3040770347161601e-12  4.3317208083445553e-12  3.1655920110018511e-12  3.4201925117800181e-12  3.3824776199096523e-12  2.9251444883890673e-12  3.2165682902952518e-12  3.0829140249286243e-12  4.4274370402769918e-12  3.5938578256355511e-12  4.1988162659531490e-12  4.2543976288116341e-12  3.8139247429207846e-12  4.0264828052416675e-12  3.9209239046960599e-12  2.1264847666242805e-12  2.1635549667297045e-12  1.8925959042866005e-12  2.1805070246335326e-12  2.9147844641342374e-12  2.3860916801799913e-12  3.5603393146905328e-12  4.7180858971764652e-12  4.3871263722200172e-12  2.2135824068771999e-12  4.0417409510908612e-12  3.5781099794572821e-12  2.6453555798074495e-12  2.7612796623651255e-12  3.1244091656545699e-12  2.9210589532268827e-12  2.1098354646715454e-12  2.6582482364914517e-12  2.1248971204870426e-12  2.1186029902600517e-12  1.8746746260358777e-12  1.9979326458673569e-12  2.2235339388242751e-12  3.8678602879702536e-12  4.1352061894617844e-12  3.7125730350068634e-12  4.5649708501013686e-12  4.5054299487562945e-12  2.9184869996815253e-12  4.8117598893740561e-12  4.8087049127655103e-12  2.4871095374532195e-12  4.3771192232742595e-12  4.1454573731075623e-12  4.0046962102815876e-12  3.7850389287875796e-12  2.6966269225129153e-12  3.0054854127767728e-12  2.1794580113900001e-12  2.1175932599119222e-12  1.9289092601268706e-12  1.9191889237795772e-12  1.8729499020776377e-12  1.9210708258065036e-12  1.8663931372534964e-12  1.8672619431261515e-12  2.6266006081719872e-12  1.8747908864237702e-12  3.5977658736136481e-12  4.6548211891740629e-12  4.6639979701254771e-12  3.6350050478633212e-12  3.1635844087537841e-12  2.6431242134822941e-12  1.8752484225204344e-12  1.8799731819420034e-12  2.6775991725787742e-12  3.4099029715556461e-12  2.0429717250834252e-12  2.8527002704991422e-12  3.2626825637719294e-12  3.0979418336827625e-12  2.8077929968162511e-12  2.5195321907175637e-12  4.7215335093965552e-12  4.5599606871516781e-12  2.6645921003335073e-12  2.3892096913742647e-12  3.1062143731233106e-12  2.3486586957476215e-12  2.7427444006958728e-12  4.5657076630863872e-12  2.6188469903359857e-12  3.2518209492382776e-12  3.4594351038606265e-12  2.4216159131938745e-12  3.0781892592325100e-12  2.1585171914597737e-12  2.8342725008764569e-12  2.4138486329893537e-12  2.4200207280924766e-12  2.7678516196048424e-12  2.4625786311001491e-12  3.5896281093044212e-12  4.2848386403424492e-12  2.8660964206640990e-12  3.9215876568454979e-12  2.3193228426591294e-12  2.1118050093354219e-12  3.4242452067785837e-12  3.0702984172781351e-12  2.1345219977866444e-12  4.1015931578270490e-12  3.6430390201978470e-12  3.2523764036363480e-12  2.3143551988471416e-12  3.0683190989291633e-12  2.7185983941170281e-12  2.9903339170527723e-12  3.4109537858398225e-12  3.7142912190772848e-12  3.7477851034891473e-12  4.4682524123721891e-12  2.9823393041301249e-12  3.9852397956099529e-12  2.6684347558954351e-12  2.1180316510020624e-12  2.0953123056432915e-12  3.6867146347270066e-12  4.4821987486889879e-12  3.6152637340539751e-12  3.3778220014501875e-12  4.6650735329859414e-12  4.7125261969449435e-12  3.4408512825172475e-12  2.6359372532074395e-12  2.5822769593663685e-12  3.3114709799352192e-12  4.2962805849813323e-12  2.3507876685130301e-12  3.7518604605322738e-12  3.5613432942460934e-12  3.4596387183026721e-12  4.1394776821950087e-12  4.1385460222125375e-12  2.3313662735826582e-12  2.1209176931771555e-12  2.8864183530457864e-12  3.0455070640204274e-12  4.5984265861584252e-12  4.6566245122112455e-12  2.9713232617132832e-12  3.2898153531532617e-12  3.2861889762752818e-12  4.3563123336980697e-12  3.1068379258260935e-12  3.3429311960629293e-12  4.3888694424662051e-12  2.2182554814603958e-12  3.0213373124090895e-12  3.0611652483546086e-12  2.3173048542185951e-12  2.0650125662320565e-12  2.6072412032862965e-12  2.0298348408880308e-12  2.0563192395920042e-12  2.3386704183738847e-12  2.4805158624583959e-12  2.4947607409258063e-12  2.4092030836444009e-12  2.4511886601940339e-12  2.2867184392248595e-12  4.7915363833811340e-12  4.7475740620649657e-12  4.7784584855284830e-12  2.1305401406714533e-12  2.1332049524167260e-12  2.3755156181594282e-12  4.8147594294052166e-12  3.1141530002733740e-12  4.0756456004361922e-12  3.9550155058574122e-12  3.7910272989738056e-12  2.7438543984875523e-12  3.2461282331176527e-12  4.0232868905326151e-12  2.8075529482067740e-12  2.7855736742498202e-12  2.0694472147817505e-12  2.0482789478380791e-12  2.0421480003212617e-12  4.5623326189222936e-12  2.8928292345725180e-12  2.8888167906180020e-12  3.4154895926125301e-12  2.3911454484039330e-12  3.4010939550410445e-12  2.9272417824446628e-12  4.3131029465040806e-12  3.2402806163111328e-12  3.0982235312064182e-12  2.3978472581134624e-12  4.3056589522565057e-12  2.3097690914918335e-12  2.5309289562774335e-12  4.0092018931873718e-12  2.0476391673654310e-12  4.4816803831773615e-12  3.8254925666503504e-12  2.5637423438435729e-12  2.6429450649099428e-12  2.6934297400061412e-12  2.0545300672351306e-12  3.5689953510916425e-12  3.7491086792267597e-12  1.9974885604222380e-12  2.2672253648149816e-12  4.1092580531901140e-12  3.2441252364103046e-12  3.2229668239581649e-12  2.5105272218901032e-12  2.9998882475571012e-12  1.9998676076632054e-12  2.6348448758753797e-12  3.6028313318401510e-12  2.0901000863002377e-12  3.7724526985474176e-12  4.4300980703127814e-12  4.6086283375790557e-12  4.5948823635766693e-12  3.2246857265686321e-12  3.2869134054736845e-12  3.9603125531219965e-12  1.9968782191659602e-12  1.9973587521095238e-12  2.0452456198240671e-12  2.1367894795938315e-12  1.9220360104907782e-12  2.7130518535234642e-12  2.4590309931137558e-12  3.6267804081480867e-12  2.0425276318965752e-12  3.4157848394754295e-12  2.5720372448155636e-12  2.6191137551251229e-12  2.8443057636944747e-12  3.6545803076678174e-12  3.5309241660513199e-12  4.7058380327291503e-12  2.3612490593712852e-12  3.2672503457819985e-12  4.0214175548697175e-12  3.9021742977181179e-12  2.0480421841943834e-12  4.2635026771340865e-12  4.2743215272858663e-12  4.3490654741079132e-12  4.1643243230324025e-12  2.7201891989787319e-12  3.7522211641122314e-12  3.0862577248748814e-12  3.4139749943144907e-12  2.7779992841775379e-12  2.5415862338606789e-12  2.2228353116367449e-12  3.4515042490006721e-12  3.8141491745811439e-12  4.5497952346750836e-12  2.3570410967828862e-12  4.2701247465553222e-12  4.2341937383961992e-12  2.3983670133902583e-12  3.5127356618309556e-12  3.2533262645782910e-12  2.2038243148437535e-12  3.6813884159789910e-12  4.6366751598619894e-12  4.1873248298023238e-12  2.7501644315153234e-12  2.4793089483219834e-12  3.4879748460348505e-12  2.5079846815412621e-12  2.1168984289300198e-12  3.4322471335748535e-12  4.3592619459839360e-12  1.9888037663618869e-12  3.9086839414737677e-12  3.8488776921567049e-12  3.9397698523166681e-12  2.3662418550825152e-12  3.1766783905450223e-12  3.4354882226214398e-12  3.0169199802024782e-12  4.5270681924227390e-12  4.0622713153842647e-12  1.9095401617843341e-12  3.8278510987934100e-12  2.8191845420480134e-12  2.8401316478022810e-12  2.3468709459463923e-12  3.7037100329140475e-12  3.8957944930779390e-12  2.9446808239988873e-12  3.0371483297380870e-12  2.7872817717809390e-12  2.6510119728509621e-12  4.4622464294219188e-12  3.5407775846113460e-12  2.0449886878652481e-12  2.2449922514786001e-12  2.6155380786910751e-12  3.8060275503030966e-12  2.7213725854191044e-12  3.6092133125713044e-12  2.6258487748309307e-12  4.4275482829032183e-12  2.2343549955849256e-12  3.1417122304123963e-12  4.0563474790844465e-12  2.9675965911546496e-12  2.0061277145839761e-12  4.2791169448423499e-12  3.1805571754055563e-12  3.6074952431039174e-12  4.1857077730021458e-12  2.2452239051403639e-12  3.2373124006441013e-12  4.0661566765200153e-12  2.3406601213999120e-12  2.1191356821103477e-12  2.2919030386347057e-12  1.9196951531541314e-12  4.1402127040661692e-12  4.4448387312709018e-12  3.7195372453043919e-12  4.3907967993042821e-12  3.1198918621540945e-12  3.3428795512342041e-12  3.8257009292255159e-12  2.5004084022724652e-12  2.5487326471818357e-12  3.6939545349969396e-12  2.2897699326658646e-12  4.2127129101762091e-12  3.3499466547944458e-12  4.5125576408486179e-12  2.7757852534899363e-12  4.3917213511464794e-12  4.2712967206896401e-12  3.9361370601654271e-12  3.6956832608134043e-12  3.6963868969598406e-12  3.0704237900745673e-12  2.9368449143959689e-12  3.3383216498777287e-12  4.6621849435296683e-12  1.9370426194517110e-12  2.2620455605883867e-12  2.2314335514126314e-12  2.2741133051096111e-12  3.9304396910009428e-12  1.9239899827047461e-12  4.4112956296440196e-12  4.0349067888386832e-12  3.9112691353196647e-12  2.4925800526042270e-12  3.4985003277589417e-12  3.5129674584270829e-12  2.5211568717417812e-12  3.4380698818626091e-12  1.8646836653887168e-12  2.1462235228633280e-12  2.8225046684697617e-12  2.4498007484475593e-12  2.8677191337736052e-12  2.4392056431301519e-12  2.6989629873760382e-12  3.2982219083261964e-12  3.8590046404198420e-12  4.7049830761946756e-12  1.8721277921691643e-12  2.0072868837319898e-12  2.0567736852724640e-12  4.2079142987868585e-12  2.9805873942117867e-12  3.0511290263762189e-12  2.9910969691444300e-12  2.0814651662720745e-12  4.1511662012964661e-12  2.5565338978676124e-12  4.1620418308759293e-12  4.1144628568536852e-12  2.7150133298702335e-12  3.0396281506541308e-12  2.7437338960409119e-12  2.0334286784334072e-12  2.0420424669099396e-12  3.9952333988760300e-12  4.3451781384203479e-12  3.7115410876175307e-12  2.1862311023768517e-12  2.3832819391012478e-12  2.9068987188251930e-12  3.0659784642883485e-12  2.9653896802201643e-12  2.8297064115427533e-12  2.6624183392451311e-12  2.4564417818839483e-12  2.5039583565822756e-12  3.8607208010738317e-12  1.8700772581382444e-12  2.5378756493920562e-12  2.5715926916019502e-12  2.7371307302134691e-12  1.9986362847677396e-12  2.1902990735916377e-12  2.0170697806385892e-12  1.8708316987297319e-12  2.4845703649431951e-12  2.4940582605634682e-12  4.0523948468462142e-12  4.0333871688285832e-12  3.2471824423719836e-12  2.3186281599408219e-12  2.0535719585920749e-12  3.1798965004073333e-12  1.9916901745632786e-12  2.2140900277552174e-12  3.6843368299374482e-12  3.5874866739513880e-12  2.1753626636846564e-12  2.4057735177173223e-12  3.1428481416569233e-12  4.2380030653607824e-12  2.7490746840338765e-12  2.2483579237828194e-12  2.2682022871635642e-12  4.7479108457859193e-12  4.7131955490171483e-12  4.6793188168848457e-12  2.9591585373007477e-12  1.9933080593158129e-12  3.0584602466237816e-12  4.3278848783295352e-12  1.9971190245204825e-12  2.2325475477261669e-12  3.4350324859779719e-12  3.1539276198993607e-12  2.5175288201249681e-12  1.9679265206950335e-12  3.3801754098564503e-12  2.2401403115529751e-12  2.0063228911657477e-12  4.3627936105198620e-12  3.4928964408503458e-12  3.2084878305523842e-12  2.2599456022365451e-12  1.9913207668542271e-12  3.0951863146910534e-12  2.8778574684830432e-12  4.5746885070975955e-12  3.3503739791045565e-12  1.8789593012023065e-12  3.7126940883155370e-12  4.1803687909689947e-12  3.7093735735966376e-12  3.0942127104432109e-12  3.8257715037000223e-12  3.7957086582541714e-12  4.0375555455843724e-12  2.2667839782937941e-12  2.8790493153129254e-12  4.7494036127636347e-12  3.7126024814715485e-12  4.4886951500325582e-12  4.5319452571308813e-12  4.4783647137126890e-12  4.6062147318783557e-12  4.6076476339590437e-12  1.9951451488747263e-12  1.8664614679634756e-12  3.5961535579006870e-12  3.5595505871261265e-12  3.6832139461861669e-12  3.6013655054428564e-12  4.7564955529712510e-12  2.9719273184353148e-12  2.1684213022085768e-12  4.1241284145503190e-12  2.3630605790429908e-12  2.2711925401363740e-12  2.2144155537260577e-12  2.7798838458369045e-12  2.3257626675692297e-12  4.0437286112392182e-12  2.5792117452626911e-12  3.5235273759809996e-12  2.2840090287708179e-12  2.1819536312942920e-12  4.8299387842526820e-12  4.8245899004569326e-12  2.5161622811094467e-12  3.7108446303588175e-12  2.1250432108622161e-12  4.7950229394017718e-12  2.5699334607651875e-12  1.9809604344335008e-12  4.4442142102665862e-12  4.4246789696758583e-12  3.1745328859174212e-12  2.6013516095500867e-12  3.3329668971416854e-12  4.0559785435786294e-12  1.9189542079894310e-12  4.7419245215285797e-12  2.3290771904852233e-12  2.6260425225326735e-12  4.1607000226704302e-12  2.4480436204478448e-12  4.5993140697653681e-12  3.2187695250702035e-12  2.4854984697793653e-12  2.6506266249980391e-12  2.9662998882389763e-12  2.5556313296625340e-12  3.1214704073015607e-12  3.3041775774832119e-12  3.8785235842274852e-12  3.0350334866580414e-12  2.7534409359515007e-12  2.1232346000367670e-12  1.9874915390696626e-12  2.5360047996903865e-12  3.8567862767339334e-12  2.0466220789762915e-12  1.9922283533226744e-12  3.9270482732409666e-12  1.9145860945686105e-12  1.9280978670381930e-12  1.9279299035177279e-12  2.0975983132239512e-12  1.9799870764402671e-12  1.9367312221236962e-12  3.2848679145978568e-12  1.9413561829731337e-12  1.8737774200574911e-12  3.0033808333652450e-12  3.2447486331378432e-12  1.8692720144893873e-12  1.8720794205024646e-12  1.8726512479331398e-12  4.1537257708497629e-12  3.9592863635485683e-12  3.7475112584852126e-12  1.9231911259073386e-12  4.4814630280336638e-12  4.3053102464638074e-12  2.7530311902824065e-12  2.7862306444498785e-12  1.9840828061961799e-12  4.7835167289777576e-12  2.3551850840558911e-12  1.8747104933969965e-12  4.5976775970477028e-12  3.4824327775820165e-12  4.7841742422125164e-12  4.7116725318860251e-12  1.9177199766089786e-12  1.8688967406068023e-12  1.8335333182141124e-12  1.8535769128827856e-12  3.5218821051880440e-12  1.9245618470785979e-12  4.6098521834497092e-12  1.8774865274979921e-12  1.8837706861103230e-12  1.8730164057809823e-12  2.8421719772730492e-12  2.4050854434836242e-12  3.3155491692562508e-12  2.0456076693561237e-12  3.5062843896969061e-12  2.0728248936585891e-12  4.5355027259991112e-12  4.5140401996181278e-12  4.6086794418223238e-12  2.2765978852423375e-12  4.6813983159861948e-12  4.2764465702312764e-12  4.5788262095686141e-12  2.6949061950169187e-12  3.8432198299503413e-12  4.0572137399172879e-12  2.5766487412569651e-12  3.5256668851365169e-12  3.4169613289346053e-12  3.3110992815559721e-12  3.7497385708099119e-12  4.4955844045755264e-12  4.6140908645635239e-12  2.2520218834466694e-12  2.9334127888875342e-12  2.8192560202134172e-12  2.3935850155078214e-12  4.4248961553495548e-12  2.0048530080622540e-12  3.4512811377500659e-12  2.6508055062726066e-12  3.9666850395041228e-12  4.2301471011677517e-12  3.5103311933091827e-12  2.7368766878885124e-12  3.5407862714618094e-12  4.1090107573286006e-12  4.0095991880789514e-12  2.8064813664512386e-12  2.1898646858777171e-12  4.2779793534151544e-12  2.4191213773857935e-12  2.3229280516064645e-12  3.5519710933695792e-12  3.1822786190828867e-12  4.3041303068069447e-12  3.1027457203452102e-12  4.5052649464171586e-12  2.2727494682223047e-12  3.2265470456331376e-12  3.1603583027459136e-12  2.5142258253485551e-12  2.7961650531282979e-12  2.7447946629054974e-12  2.5772066607632246e-12  2.5975209927578643e-12  2.4737062083471872e-12  3.6412650550311240e-12  2.6445185839986165e-12  3.0617581018291045e-12  3.7536415257088447e-12  2.9258070293149597e-12  2.8574828683847653e-12  2.1493557505706371e-12  3.4869327307124058e-12  2.9618292450701155e-12  2.8937234768725829e-12  2.5984386977169145e-12  2.7394894526352457e-12  3.3680591623599730e-12  3.3202604396665186e-12  3.1534165466203158e-12  3.9724433486849019e-12  2.4006511229604777e-12  2.3037472044043403e-12  2.2838936350415037e-12  2.3762416212049940e-12  2.4555472134570613e-12  2.3027116743695896e-12  2.2321259210788947e-12  3.3407495818684211e-12  3.5278140791710130e-12  2.2845802153887910e-12  2.0211562801344459e-12  2.3774074023133715e-12  3.1701690228858571e-12  3.6019898947430330e-12  3.9157293181389322e-12  3.2960367832723776e-12  2.6669666234927800e-12  4.3244449633610079e-12  3.7088720934878091e-12  2.1838420467726334e-12  4.3857729413138126e-12  2.8447245962982891e-12  2.4828619411113055e-12  2.4059891884849817e-12  2.0063200245035158e-12  2.4902088143800412e-12  2.0650879984033363e-12  3.5887563827693388e-12  3.3289223321884593e-12  3.6236847856102604e-12  3.7968241187523512e-12  2.7532515962296210e-12  2.6954789163144581e-12  2.9929860864392543e-12  2.1679645386326063e-12  3.9069729293915446e-12  3.3329830827132774e-12  3.5961234389842635e-12  3.6963208629859163e-12  2.2768879847454422e-12  2.0234284657919514e-12  2.7404725766793041e-12  2.0251023654968593e-12  2.7234892767065081e-12  2.1810535571292503e-12  2.1507891832329253e-12  2.5425048154147289e-12  3.3601974906124402e-12  2.1153892469031258e-12  2.5398565595887165e-12  2.7470414149963774e-12  2.2398665502247026e-12  2.3645151369101137e-12  2.4654480064933131e-12  2.2047836718647435e-12  3.79910511179