<?xml version="1.0"?>
<VTKFile type="UnstructuredGrid"  version="0.1"  >
<UnstructuredGrid>
<Piece  NumberOfPoints="6486" NumberOfCells="12696">
<Points>
<DataArray  type="Float64"  NumberOfComponents="3"  format="ascii">0 2.5 0  0 0 0  2.5 0 0  2.5 2.5 0  1.25 0 0  2.5 1.25 0  1.25 2.5 0  0 1.25 0  1.25 1.25 0  0 0.625 0  0.625 0 0  0.625 2.5 0  0 1.875 0  2.5 0.625 0  1.875 0 0  2.5 1.875 0  1.875 2.5 0  1.770833333333333 0.7291666666666666 0  0.7291666666666666 1.770833333333333 0  0.9375 0.625 0  1.875 1.5625 0  0.642361111111111 1.163194444444444 0  1.341594827586207 1.883979885057471 0  0.46875 0.46875 0  2.03125 2.03125 0  0.3626104797979798 1.513178661616162 0  1.381740196078431 0.4564950980392157 0  0.9375 2.172619047619047 0  2.172619047619047 0.9375 0  2.096354166666667 0.4036458333333332 0  0.4036458333333333 2.096354166666667 0  1.684027777777778 1.163194444444444 0  0.3418803418803419 0.8693910256410255 0  1.642742622813391 2.162164207604464 0  1.275619849389031 0.8465650753054845 0  0.9136284722222221 1.434461805555556 0  1.732437511238546 0.3406962303960658 0  0.9714402568595876 1.029779313093998 0  1.52281746031746 1.485615079365079 0  2.1875 1.71875 0  1.06819722569879 0.2997236128493951 0  2.136114211309524 1.303478422619048 0  0.3125 0 0  0 0.3125 0  2.5 2.1875 0  2.1875 2.5 0  0.3200021620376328 1.192323085056694 0  0.6738456129277992 0.8304377375553881 0  1.757891808928991 1.861952730357003 0  1.5625 0 0  0.9375 0 0  0.3125 2.5 0  2.1875 0 0  2.5 0.9375 0  0 0.9375 0  0 1.5625 0  0.9375 2.5 0  2.5 0.3125 0  0 2.1875 0  1.5625 2.5 0  2.5 1.5625 0  0.7448220909826522 0.3003573636608841 0  1.027298850574712 1.871151477832512 0  1.331260495098891 2.197262878816185 0  1.207917681892289 1.582765010956622 0  0.4339993447432606 1.801186844743261 0  0.6337298768939392 1.443093039772727 0  2.049851190476191 0.6826636904761904 0  0.6584821428571428 2.219122023809524 0  1.89575676467455 0.9798457973793544 0  1.437570562095628 1.059380588255917 0  1.502090052505845 0.6987070896496241 0  0.2040860661083546 1.705323965099331 0  0.2083333333333333 0.46875 0  0.5070952039991439 0.2211150679997147 0  0.6916302856529919 0.5813591430410241 0  2.265625 1.953125 0  2.2265625 2.2265625 0  1.886424081252096 2.243391360417365 0  1.40625 0.202164758520858 0  0.2269345238095238 0.2269345238095238 0  1.152730869673694 0.5225850378741401 0  1.885631899587912 1.312095130148776 0  1.614808884009367 0.9049784971014416 0  1.890095442220658 0.5126535558463003 0  2.323168682795699 0.46875 0  2.268811725689575 0.2304742875213018 0  0.6002389442105756 1.967426444210576 0  0.1768313172043011 2.03125 0  0.2311882743104251 2.269525712478698 0  2.03125 0.176831317204301 0  2.280262553344767 0.6954945504579233 0  1.979219539285994 1.809922269642997 0  2.336309523809524 1.09375 0  1.09375 2.336309523809524 0  0.9314042474388009 1.662973812215543 0  0.1634067999087722 1.40625 0  2.337090640094896 1.40625 0  1.141616997467638 2.069311773587991 0  0.46875 2.338939559681489 0  1.542440307908715 1.734944797244472 0  1.556713687786879 1.956977865354753 0  0.8264238995344066 1.975424467820646 0  1.466326331454725 1.275271369760862 0  1.655675324257095 0.5444159974393489 0  0.3385416666666666 0.6479255698005697 0  0 0.78125 0  0.5236073939200119 0.984090461540625 0  2.091665741047893 1.519793517904215 0  1.71875 2.5 0  0.5356538886262603 1.623137930505009 0  0 1.09375 0  0.1932884281517095 1.015625 0  0.8569313582417669 1.2198915584249 0  0.8876981284879677 0.8329884081524883 0  1.115618488474214 0.7219586973356271 0  1.186950366204949 1.043465130075318 0  2.057459118787237 1.110823087309335 0  1.830651283878689 2.049810069572418 0  1.689107969301489 1.367247437031697 0  0.4921048768039656 1.298643370653124 0  0.8213975694444444 2.336309523809524 0  2.03125 2.5 0  1.049729400480002 1.283723261332814 0  1.308101375801673 0.6489479469700392 0  2.5 2.34375 0  0.4968777175037714 0.7562964879736076 0  1.40625 2.5 0  1.501347663534097 2.307027627307738 0  1.602813712048603 0.1926218191360736 0  0.8393082906308107 0.463778306132633 0  1.682663349152719 1.598471865581041 0  0.7774174680851571 1.560004941327907 0  1.554204170364662 0.3898593897892066 0  1.842184459051087 0.186443880058197 0  1.358107417651776 1.696381759610015 0  1.18859291992392 1.77598670078022 0  0.1875331222687418 0.7609599743339348 0  1.339536743965101 1.422080365801479 0  0.7788179348750389 0.9955343414928611 0  0.9062978492805438 0.1919636509126373 0  1.256007360640958 0.3160320559396114 0  1.09375 0 0  1.174986727221844 0.1594990293443933 0  2.34375 1.796875 0  2.318026474511116 1.589177949022232 0  2.34375 2.5 0  1.672742954892153 2.332882724550692 0  0.2683637361947215 1.874801596909639 0  2.174770749820102 0.5581009131310781 0  1.443279522965991 0.8870068372898454 0  0.3385416666666667 0.3571428571428572 0  0.78125 0 0  2.060421048269335 2.314363248763811 0  1.088078737088509 0.8967352118723447 0  1.087825368444708 1.454931510884769 0  2.018308232129541 0.8548495425854904 0  1.943987311736842 0.3246298523011434 0  1.71875 0 0  1.85337849796276 1.144833312386208 0  2.3486328125 2.1044921875 0  1.407588788651747 2.042968789119587 0  2.336309523809524 0.865366648092144 0  2.34375 0 0  2.5 0.15625 0  0.15625 2.5 0  0 2.34375 0  0.1638044648294291 1.242263417405867 0  0.356216654757926 1.032569427322806 0  0.3188217956111817 1.355736727000647 0  0.5924956460852111 0.36112522004736 0  0.6594216488965849 0.1603472116132387 0  1.841804599497131 1.72214349266521 0  0.15625 0 0  0 0.15625 0  2.115898634821499 1.894570904464496 0  0.7821877980253907 0.7129993435924866 0  1.003820447087786 0.4516053462784233 0  0.477562948779147 1.138333049293613 0  0.719493678605015 1.305655360135975 0  0.9772457618587566 2.020350128938537 0  0.8764738248887107 1.826219722709673 0  1.254787875123819 2.339010653832026 0  2.343597354852534 1.249982759769001 0  0.78125 2.5 0  0.46875 2.5 0  2.5 1.40625 0  1.09375 2.5 0  2.5 0.78125 0  2.5 1.09375 0  2.03125 0 0  2.5 0.46875 0  1.40625 0 0  0.46875 0 0  0 0.46875 0  0 1.40625 0  0 1.71875 0  0 2.03125 0  2.5 1.71875 0  2.5 2.03125 0  2.005424054645407 1.653223486966518 0  0.1538730573856537 1.559850281736677 0  2.33984375 2.33984375 0  1.166539506212474 1.922878979538754 0  0.3914885633949916 1.65887232812171 0  0.5795503163042564 1.766243562569382 0  0.399533125920212 1.946786875081388 0  0.7866324979014098 2.127719094551316 0  0.3654683023546834 0.1495701132219454 0  0.1527388747131078 0.6116379440619215 0  2.013737577140188 1.391056634712135 0  1.17635437372994 2.213329084238133 0  1.737118141866284 1.010577140843115 0  2.200707118087222 1.164723314085963 0  1.697018908736685 1.993548551451517 0  0.5387621649009668 0.6070503962352419 0  2.032805785855952 0.5330427622570983 0  1.082699501358059 1.667818725183932 0  1.503819781540653 0.5468420196858188 0  2.015409142866072 2.175941657590429 0  1.752057611265444 0.869642097111018 0  0.612251684107783 2.356045720700959 0  1.902817102342857 0.6607642211999982 0  2.159616561739693 0.7867739969338844 0  0.5120038350106624 2.197302352398502 0  1.888200216011548 1.919501662489862 0  1.495909909726654 2.16028358757309 0  0.489139876703609 1.443203008943564 0  0.8819175670410521 0.3301172743913011 0  1.882591144370812 0.8155965192707721 0  1.133979796994841 1.172526771862882 0  2.206217447916667 2.084147135416667 0  2.20361328125 2.36279296875 0  1.395746985657004 1.556054166359645 0  1.704383111516207 1.734750450338683 0  0.9575737847222222 2.36274223823052 0  1.035150984253136 0.1302833343179028 0  1.383966125325753 0.7651479963479179 0  1.64003252158672 0.6824316405528895 0  2.22550785055421 1.487078576356817 0  1.760964431499756 1.48495222505201 0  1.276460980673788 2.004207003584658 0  0.1341477688427096 1.828777507920502 0  1.542261434180652 1.155296658359034 0  1.334627911613854 0.9696897472490321 0  1.30794231473696 1.119420615785191 0  0.7028260459857245 0.4438906910721139 0  1.625757433094055 1.84268057552138 0  0.9818707849053143 1.165603626132254 0  2.0086489901463 1.243134585689553 0  1.934584460420609 2.374094051915812 0  1.798434376789567 2.38671361912528 0  1.206314791201715 1.382064292497919 0  0.6333752893366955 0.7023738550008095 0  0.7796219811205605 1.42573253164258 0  1.564399711917382 1.026040828857629 0  0.3385416666666666 0.4889012896825397 0  0.1041666666666667 0.390625 0  0.989112246382566 1.543537365516289 0  2.025724425454636 0.9846960595520872 0  0.6602885475034063 2.086117390485779 0  1.607130551925032 1.267198646640915 0  0.1317864544877056 0.8896173683400176 0  1.755387840017567 2.230364320056445 0  1.301540702984401 0.1216289692748247 0  1.433170657577442 0.3331052752740999 0  1.500459610550388 0.113513924782439 0  0.6494291520606965 1.029586599619295 0  1.010146149868299 0.794897284196169 0  0.3700844198238017 2.235390157870766 0  0.3360891767780704 2.36656279435396 0  1.876856241037701 1.437150669863757 0  1.778674102957329 1.245979347269706 0  0.5472829890977179 0.1005517127039925 0  0.4669074189005698 0.3416784232954367 0  1.472765289289269 1.850899166481903 0  1.555853593327178 1.608452097912802 0  0.6708955559113426 1.646561631116984 0  0.8164699620322933 0.5924479455478063 0  0.3167738989468366 1.758696809749795 0  0.2788007305565096 1.605499483471246 0  0.7821720982350511 0.181524936294752 0  1.376812251214195 2.313340247908297 0  1.785652202614777 0.5962261755537186 0  1.761467296310972 0.4679567244718574 0  2.2265625 1.8359375 0  2.3828125 1.9140625 0  0.5279531607054191 2.071552361614785 0  2.397573269551114 0.234375 0  2.383578172599618 0.3589298466020009 0  0.1024267304488855 2.265625 0  0.1164218274003825 2.141070153397999 0  0.2696857594953064 2.135405441512016 0  2.164961300137334 0.1375322943529536 0  2.137757548369486 0.2724194778647587 0  2.238873711826398 0.3626419179496562 0  0.1001414910226386 0.234375 0  0.2176339285714286 0.3478422619047619 0  0.2503620791333544 0.1061694061057066 0  2.336445461915368 0.1250451055247424 0  0.2154004640409726 2.3918124
[...]
<PointData  Scalars="f_49-2"> 
<DataArray  type="Float64"  Name="f_49-2"  format="ascii">8.8216738589744364e-16  4.0659296864439512e-16  1.4473974828226212e-16  6.1202631728359479e-15  3.1465290464742701e-16  1.5453892903463525e-16  8.9747019139740550e-16  7.8278697380651330e-16  6.1955526372865131e-15  5.1485700670576586e-16  3.8025671180404496e-16  8.8863717584604710e-16  9.0300625065438274e-16  1.4190645045754097e-16  2.2368116312118922e-16  2.8289072931523769e-16  3.9100949794839227e-15  2.5385758129811084e-16  8.9065898338417872e-16  4.0805643330381699e-16  1.3001081376638790e-15  2.1988176170343513e-15  4.6831233311367340e-15  1.6478894097243806e-15  6.9690611976457553e-15  8.4673875783354267e-16  3.0517823646250417e-16  9.1183772559990432e-16  1.9616783142973361e-16  1.9584658985997568e-16  9.1005742675369805e-16  3.2820324390757817e-16  8.7097931058354115e-16  5.4051191715269885e-15  3.5581869853051712e-16  3.6945929791235158e-15  2.4711472486860084e-16  6.6155523179197000e-15  5.8021101654965855e-15  5.3857968414144158e-16  3.4003955349082870e-16  2.1034234383298344e-16  3.9663695378612093e-16  3.7039850915638824e-16  1.9257500136496143e-15  8.7270184002047077e-15  7.6626301667035676e-16  8.2218864837126774e-15  8.7543010517443285e-15  2.6696996538575957e-16  3.5084721566626091e-16  8.8204815206444341e-16  1.7650025371008222e-16  1.4450933116632627e-16  6.8388843469958406e-16  8.5973200799512135e-16  8.9157140996375889e-16  1.4009512694705023e-16  9.0800194759699953e-16  1.1344041083605079e-15  1.6094145030522085e-16  3.7059957096979762e-16  1.0427161888740251e-15  1.1706247244384663e-15  8.3110970750117132e-15  8.9159397964999487e-16  8.7106431531711006e-16  2.0680630841990364e-16  9.0897787477031567e-16  2.3817177877367264e-16  4.9637363289257944e-16  2.9046412182367157e-16  8.8157462337430923e-16  4.2729105729003056e-15  3.8589777685174204e-16  9.8829595672042857e-16  1.5247610410391185e-15  6.6919145819869697e-15  8.6346503569675389e-15  2.9482563527660707e-16  3.6965711464517234e-16  3.3286552156428114e-16  2.9262204786931345e-16  2.7908216624763041e-16  2.2724641192294130e-16  1.6366306220716420e-16  1.7021700862599031e-16  9.0539685831855644e-16  9.0933424620795012e-16  9.0449163976216192e-16  2.0412472960099809e-16  1.7271130331682335e-16  3.5025288571951549e-15  1.7306472786208088e-16  9.0784285497614825e-16  1.2894191024361481e-15  8.2230984706709579e-16  1.8032156730471788e-16  9.8369651981842140e-16  9.0135187010334078e-16  9.9143145868033368e-15  8.1523207637436189e-15  9.0684602333647937e-16  2.0561091249094577e-15  2.6850954843519207e-16  4.6061960171673517e-15  6.0407326742365500e-16  2.4817937889205568e-15  2.9463141556133183e-16  2.0481996041349636e-15  8.6838380014402917e-16  7.3886954679594410e-16  7.0659364903339882e-16  7.2971056000951997e-15  2.7335731917435007e-15  3.6435348318582902e-16  2.3359630936495135e-15  2.1522986994282321e-16  9.8349848633956528e-15  9.8046106443864852e-16  8.0856072127899866e-16  9.0446959541244957e-16  7.0243302099029215e-15  9.8436149463719385e-15  3.1474313888929877e-16  3.9902745188904680e-15  7.3768863329703718e-15  9.2339484880621375e-16  1.5024014783043009e-15  2.6407820936977643e-16  3.6156086014599646e-16  4.8853595060051226e-15  9.6595429439859460e-16  2.7919777101807069e-16  2.2766619153227431e-16  9.1839614242895858e-15  3.2982364002515768e-15  6.1025507621772028e-16  8.1599675446422046e-15  9.0035139793093313e-15  3.5538058648889175e-16  3.1915456785740200e-16  3.3424645123115580e-16  3.2907718828125074e-16  3.7329898790312361e-16  2.0742297953427876e-16  8.1609204020204968e-15  3.2035716937584124e-15  9.0041304468689678e-16  1.8447143732356803e-16  3.0865114610348105e-16  1.2311178211311786e-15  3.6526213661281178e-16  9.3135243785079784e-15  1.1803491903370774e-15  8.2147748215829605e-15  2.1888577881821030e-16  2.1617556400401191e-16  2.4642922429493282e-16  2.5019647914776708e-16  2.5635220443483345e-15  3.0743900917686623e-15  1.6630943519497211e-16  1.6212721755487505e-16  1.4345067392066165e-16  8.8159463901470311e-16  8.9487534605460695e-16  7.8338927403668401e-16  7.2766040118639395e-16  8.1144885974637630e-16  3.7751880274873202e-16  3.7720141290182996e-16  4.3286152917437342e-15  4.0372422010929334e-16  4.0549611674117590e-16  2.6753911842901534e-15  1.8238202570111394e-15  3.4718336905439710e-16  8.5769490987290597e-16  1.8395376741279410e-15  9.1672312721166371e-16  9.1510286989717010e-16  9.2659553286825341e-16  1.7749619004115512e-16  8.9014935433114870e-16  8.8416439918869970e-16  1.5793842399494062e-16  8.9353631734207556e-16  1.4520739952346091e-16  1.4959262990751380e-16  2.0380258227011667e-16  1.4075861111935958e-16  2.8505453021480874e-16  3.8972592909615307e-16  4.3870229598509823e-16  8.2181062314835770e-16  8.8451464864267478e-16  9.0889713721696061e-16  1.8074403089050543e-16  7.1077733874148550e-16  9.7856328586910982e-16  8.5769087207881028e-16  6.5290912830545352e-15  1.4753523021077247e-15  8.7034317956727427e-16  8.8866534737573740e-16  9.0505901618245077e-16  9.1078066203367085e-16  3.9289319374268763e-16  5.6074380075070787e-16  2.6602261808332468e-16  9.3493351631204879e-16  2.6249367143478153e-16  1.9537635488536677e-16  9.8089662201298098e-15  4.5766191623863334e-15  2.0775415706439871e-16  3.0652923593707431e-15  2.8893741597120954e-16  9.1976776864024689e-15  2.5834452814422020e-16  9.0127561716990838e-16  2.3022485682590168e-16  1.9297008341669162e-16  9.0903871964778535e-16  7.5435688610347376e-15  2.7881903060411532e-15  8.3260118307837235e-16  3.5798979471729943e-16  2.3571117914639809e-16  6.8786143223023513e-15  4.6185716177022747e-15  8.6783914647858897e-15  9.6089409948866045e-15  7.6317582051940672e-15  9.0361440860886006e-16  3.4323182421103573e-16  3.0766619694601826e-16  2.7119228412932234e-16  2.1379828352023389e-16  1.5779365711939812e-15  1.7509060525836216e-15  8.9576205927868216e-16  5.2759244841790239e-16  4.5147619999803907e-16  1.8526797101358198e-15  3.8911422039303970e-16  1.0045469744157703e-14  9.5093175106297036e-15  2.3152330403844789e-16  7.2876549023352688e-15  4.2834665949967625e-15  9.7069950779780425e-15  5.5483762444485960e-15  1.4264808534170158e-15  3.0837918903874507e-16  5.4618419239116055e-15  1.2784724438668467e-15  3.2123075380353707e-15  2.1696517371939716e-16  9.1017859002371827e-16  8.1539527080494613e-16  6.5217886010338534e-16  6.2623280448903110e-15  3.0841267697993145e-16  2.9603480763605767e-16  2.7741373427928871e-16  5.3571928682291714e-15  8.5962137979820761e-16  9.0699630712011656e-16  8.9778242994794950e-16  5.0322173043309322e-16  3.2660604146033336e-16  3.8432760933811391e-16  4.0767441126077916e-16  8.7258642752624400e-15  7.7962635867117780e-15  8.7717267200500963e-16  5.0391670596363384e-16  8.8736874454808100e-16  8.6277676703327398e-16  3.6755721729386311e-16  1.0514320520647326e-15  2.4950367711905802e-16  2.4687513259426229e-16  9.2914791924741161e-16  5.8286199569214883e-16  9.0967846067075946e-16  1.4983791964876246e-16  1.5619078673273055e-16  9.0385510677005019e-16  9.0941909713009805e-16  9.0955153901083200e-16  1.8504000454660882e-16  1.9032929887356030e-16  1.7867736454439896e-16  3.2679110134381319e-16  3.2113974427462876e-15  3.9825542847927859e-16  1.5833140235594293e-16  8.9402563069648120e-16  9.1357301382240680e-16  3.9953058206971000e-16  2.4865716203055326e-16  3.4238711608716077e-16  3.2982686620405216e-16  3.1663661115314038e-16  9.0740101726476101e-16  3.0106269194521155e-15  6.6990233451204424e-15  9.0613760310496383e-16  2.1633684731383505e-16  1.5938903116153148e-16  1.5817632813631809e-16  3.9745381308620779e-15  7.2528681184950045e-16  9.0114714961608031e-16  9.0053068574232771e-16  2.8607491862049723e-16  2.8884069560511217e-16  2.5928148771480891e-15  2.3232211425942947e-16  3.4546460585828494e-15  9.1489920339465828e-16  1.1480173650583076e-15  1.8936863316420861e-16  3.6016969420763941e-16  1.9159560335302934e-16  1.0945565918732457e-15  7.5379208166971836e-16  1.6240414580475350e-16  5.6378246660898399e-16  1.0590549030196405e-15  1.1762522232527422e-15  5.4315000060894863e-15  2.1361698810737769e-16  9.0312238543754617e-16  8.3530367134231429e-16  8.0231772704151217e-16  1.6896818285831257e-16  1.9185254783555013e-16  9.3281511581502676e-15  2.5809302060443027e-16  2.6998807827766916e-16  9.7173439283235920e-15  2.3547390215203034e-16  1.8788188914440687e-16  6.9503957561550070e-15  1.2826968608384174e-15  8.9853516632756976e-16  7.2814978852688873e-15  1.1313709321100522e-15  6.3715874019760859e-15  3.6291419816904706e-15  2.6447103078649294e-16  8.7280064942366146e-16  7.6282526155199388e-16  1.6695807035662366e-16  1.6207903593137981e-16  9.2379475377019908e-16  8.9100386136288400e-16  6.2783380311137396e-15  5.7215714778525095e-16  2.2498368170568791e-16  3.0312489103723336e-16  8.8347796755884938e-15  2.7999014944910704e-16  8.9290319991726414e-15  9.1082452430043997e-16  9.1382449969140462e-16  5.3053685765543281e-15  8.3822220546752723e-16  3.7835411402629989e-16  7.4463312901738778e-15  9.9710945626059429e-15  6.4098683240111420e-15  7.7322902122398507e-16  1.0719753062218244e-15  7.2647401995878649e-15  9.7401706008461947e-16  5.0048391832561989e-15  3.0676067309465206e-15  2.2277781820195495e-16  3.4680349265866844e-15  1.7487844330783561e-15  5.6157093018456009e-15  9.9789807738810940e-16  9.1668013420154054e-16  1.7892333905519929e-16  1.6012918553272979e-15  3.1836620105950304e-16  3.7891580179399865e-16  9.0970828191985124e-16  6.6143403975257451e-16  6.6420390948479608e-15  3.5369396219703315e-15  5.6104159361975848e-15  2.6216045883710284e-16  2.8840456010047626e-16  7.7558317359563094e-15  4.5524486808013895e-16  7.0197764356090102e-16  2.3023880449801668e-16  2.0671153211395465e-16  1.0069911146501339e-14  2.0962065460929916e-16  1.6457064299563964e-15  8.6062710117538182e-16  7.5000619672005577e-15  1.5264638445292870e-16  3.2837137567465209e-16  3.3059260655856436e-16  4.2470059156762530e-16  1.8234675477801105e-16  8.7896872771203575e-16  8.5555123392684619e-16  4.8738680771397901e-16  7.4224510234423937e-15  1.7537363890309526e-15  8.8506241214296618e-16  8.7550441689885774e-15  5.2460127414645626e-15  5.7992029336103011e-15  2.9888485332669407e-15  8.3873662850241740e-16  7.7823239226126524e-16  8.9681580755682955e-16  4.5280330711245313e-15  9.5439838868895501e-15  8.5198770179007871e-15  3.7199327136301991e-16  9.6119614011487375e-15  8.9848321258830191e-16  9.0610231858146978e-16  2.0282259254669769e-16  3.1745547913109926e-16  9.0741471670203922e-16  2.9330811047015624e-16  4.5318845818267792e-15  3.6995820541141939e-16  1.7229549334816388e-16  8.8603489998874002e-16  3.1923144520587431e-15  2.3496547082902598e-16  8.3563737080035160e-15  8.9482300700687720e-15  8.0176255104467005e-15  3.0169990735631561e-16  3.5031775279543068e-16  1.6884490427896053e-16  5.2357961129948200e-15  7.3620401262124504e-16  1.5017104451584836e-15  1.2727021729608129e-15  1.8228527996622885e-16  8.9156630057594467e-16  4.3044424060756827e-16  4.6733713330073044e-15  9.8455486201082146e-15  6.1024655403621366e-16  9.5037836413549279e-15  2.7961342124925714e-16  7.9117355037216559e-16  1.8944400712131119e-16  1.9857668122688171e-16  8.1645847297341193e-16  9.0850708749245334e-16  1.1788743805629893e-15  2.7854411583945187e-16  9.9401923248411438e-16  2.1424821819570078e-16  3.6640519871987370e-16  3.6592640190006317e-16  3.2961608556599699e-16  3.0874942730875018e-16  3.0734835970851274e-16  5.7162489363174900e-15  3.0861003848241058e-15  9.5117760907594987e-15  3.8935428620004832e-16  8.8358329255525364e-16  9.1391653154196557e-15  8.6567572861078324e-15  9.0557355955673432e-16  1.0349662395863407e-15  1.4002448492270395e-15  4.2297289386337575e-16  3.3792184704294108e-16  3.2820235514419480e-15  9.1032895733126219e-16  8.9035041900563539e-16  2.9223037335181491e-16  5.9919241879184635e-16  2.9767879174139340e-16  1.4474002537748134e-16  1.8847405933019370e-16  2.4699838189307050e-16  8.8543165959942958e-15  9.0314926447521051e-16  6.0350849380833521e-15  2.1497951619537506e-16  3.3008944384621318e-16  3.6341307474865555e-15  3.9219518789100159e-16  1.4043277552251547e-16  1.5322726071915065e-16  9.0065676800671407e-16  3.5091037740156470e-16  8.9654289739448339e-16  8.9252141746178057e-16  2.5132533835867005e-16  8.2251637458740601e-15  3.4707741261023373e-16  1.6052365224151679e-15  3.4933358538863710e-16  9.9579020501580199e-16  2.2937340538864475e-16  8.9441316560722361e-16  9.0688337313473074e-16  8.9356244989185725e-16  8.9537145037495558e-16  3.3524782004166889e-16  3.6318304885175853e-16  3.0655227389231335e-15  1.7118899301115387e-16  9.0999352171955780e-16  9.0206150059919176e-16  2.6590915655145306e-16  2.4996492366792748e-16  2.0203388925690121e-15  9.0922884721416256e-16  1.2875271494567955e-15  1.9752530478945439e-16  3.1968210291446428e-16  1.4364665340128937e-16  2.0965690513348631e-16  2.0772662334725901e-16  2.2713325636305808e-16  3.1377232143288211e-16  7.8685733871171660e-16  2.1850644488202146e-16  1.4481703210747356e-16  9.2928213981062802e-16  1.9229952193195832e-16  7.3695822691813341e-16  7.5193115414976775e-16  2.7824955417046741e-16  4.0425218280022182e-15  2.7652980391982130e-15  4.4813403301339700e-16  2.2704216009511951e-15  4.5555960107999350e-15  3.3903380585777911e-16  3.4608354912029249e-16  1.6495777261266184e-16  9.0854257008821486e-16  9.6962274162227575e-16  3.5520395433762363e-16  2.2912114172139785e-15  9.0804600781225833e-16  1.7148789755204812e-16  6.3047342340038211e-16  4.3105862071364424e-15  1.1153628312862112e-15  1.5177647028242979e-15  1.5029060158285302e-16  2.6500004648848567e-15  6.5282655366989495e-16  1.5365215325610873e-16  8.9996020832938045e-16  2.7973229915174516e-16  2.6161415977402972e-16  2.2895326844772340e-15  4.5298394343199833e-15  8.4315138270012073e-15  6.2824931406884455e-15  1.2228487670957882e-15  6.5866952428753909e-16  8.5239718194654763e-16  7.0645202140709560e-15  1.8883901198460064e-16  1.5496249652193246e-16  9.0014790355021430e-16  1.0018112335638756e-14  3.8212919329070354e-16  2.8103897190530662e-16  4.1885923353227030e-16  7.5329887339172722e-15  6.9126419990570149e-16  9.9061101728522291e-16  9.2691287421538303e-15  7.9394463407197347e-16  1.1561833132098074e-15  3.3937288210740725e-16  1.9604310010226099e-16  2.3803573217158330e-16  3.8465497844197584e-16  8.1205688169718651e-16  3.7141737887292756e-16  3.8034173459832314e-16  3.7428177859517221e-16  5.4700649836976592e-16  3.7821544578065329e-16  1.6022409974146693e-16  1.4759010339267957e-16  9.8634734601958642e-15  5.4664951299737752e-15  7.2255812004560592e-16  8.3031599996114267e-16  2.2573331785022665e-15  7.1250705652345681e-15  1.8183120287666138e-16  3.4560018789560531e-16  1.8605371417060716e-15  1.7496999700142081e-16  2.9508805422530718e-15  3.3277755745673881e-15  9.0326606633995892e-15  6.0972870314564882e-16  2.4551243678179669e-15  2.9822593310988203e-16  9.8378946797038026e-16  9.1232152611701415e-16  4.0493255428781410e-16  4.0737408224125639e-16  4.7213009287943202e-15  3.0198242489630792e-16  5.8404984925617954e-15  3.9525477674547909e-16  9.0914010505399911e-16  1.4834231815614934e-16  2.0073149203576453e-15  4.8790810774395888e-15  2.6817009450856915e-16  5.2136214765896037e-16  1.1361772161278017e-15  3.4054589350796582e-16  5.2773245050144073e-15  3.9670347432054723e-16  1.7367422292368146e-16  2.0325733425286073e-16  3.4720884476116722e-16  2.0342505327495941e-16  6.3492338304846258e-15  8.7804706206551866e-16  9.1113658056808031e-16  9.0951653541710219e-16  9.5482385262851205e-16  8.6843773522661779e-15  2.4647433464549952e-16  5.8709923461901244e-15  9.5052587984864082e-15  7.0827587348068105e-15  3.7957379100047361e-16  1.7842599489412235e-16  1.6580809418786871e-16  9.0977338532423738e-16  7.8192655058355620e-16  9.6201515406930455e-16  1.7212361099048248e-16  3.2241256799994344e-16  8.8058619989608346e-15  8.9064732240116330e-16  8.1203256191900725e-15  8.8982979169945009e-16  8.8246599098810070e-16  9.0372070213368681e-16  8.7306515169446306e-16  8.8997708217711770e-16  1.6844863127585460e-16  2.3235086107266009e-16  2.5595253356783095e-16  1.5168690021795043e-16  1.5688627439805528e-16  1.5910699923271866e-16  7.1483338277517234e-16  7.6306586874554249e-16  8.0278752127799325e-16  8.9482494958940097e-16  5.5054908159408980e-16  3.5794704395013447e-16  2.1403478546857734e-16  9.0653525829559147e-16  8.8099605586355897e-16  4.0113813311722631e-16  9.0149088922580917e-16  1.4110731177427728e-16  3.8599346363874976e-16  2.7799835569750991e-16  3.9500468747124804e-16  3.8399289943846354e-16  3.0007602642471402e-15  2.8857455077607328e-15  5.2193639872405848e-15  7.1988646372178907e-15  8.4549479815249110e-16  9.8075014076972490e-16  4.7912283976832305e-16  2.0817385274749077e-16  1.1484139599603583e-15  1.4018554014831663e-16  2.3419436364235275e-16  9.9775675777640114e-16  2.3989004495935011e-15  8.9679413821199999e-16  2.9376730576375376e-16  9.0863494321635476e-16  1.4618460183787090e-15  7.5752461891177522e-15  3.2344801084726813e-15  4.8601105287503018e-16  3.9067656376419027e-16  7.8775668228803171e-15  4.9058310279951511e-16  9.0847496898937160e-16  3.8725218484549068e-15  3.4025351740213965e-16  9.1258178821523021e-16  8.3640567368008711e-16  8.5789289150228038e-16  8.6742084820502555e-16  8.0463750340444219e-16  5.6105910534594277e-16  1.2581265549079039e-15  1.8735460117282023e-16  9.5341542301720219e-15  9.4139562461201422e-16  1.9996071618305082e-16  8.0702186202139508e-15  1.6865592968963392e-16  8.4968636170930516e-16  9.3953455289118515e-16  8.4606418501816122e-15  7.7053502347283984e-16  8.3281716599208602e-15  9.0978981011541447e-16  2.9634777383145120e-16  7.4250211225348388e-15  9.4066099856243913e-15  2.2136896559261366e-16  1.7601340598099821e-16  4.8724691971897077e-15  1.9674659677960950e-16  1.8276829643799107e-16  1.7279346881054789e-15  2.7882530661051426e-16  5.8170258039531841e-16  4.6315278564519211e-16  5.7620569079142819e-16  2.6357710969553678e-16  8.7577147863772474e-16  8.8502983196273586e-16  4.6003512032564159e-15  3.1338132403780667e-16  2.5459128171434806e-16  2.6710805755661997e-16  2.3047850067230145e-16  9.1047999188753624e-16  8.2196039403674618e-16  1.2067238160369605e-15  8.8884096855886836e-16  3.1941196314820379e-16  8.9891043575218850e-16  9.0246043440478886e-16  1.1235380620321430e-15  3.4151095742548393e-16  2.4517320380040394e-16  2.3352736924270482e-16  9.0963887446671596e-16  1.1227822810642454e-15  8.6021602653819774e-16  8.6657118654658526e-16  8.8173442564165712e-16  2.0022321138268978e-15  1.8597167722739069e-16  9.1542365957281715e-16  9.3051678961124971e-16  9.0885955333380135e-16  9.0923104953404648e-16  9.0664602921345595e-16  2.4296148359851721e-15  3.4899833578641884e-15  2.9020036354900672e-16  2.2777256560714841e-16  1.5670740469913216e-16  2.0246343764430368e-16  1.7841485987458337e-15  1.0010844613978005e-15  7.7392915952200994e-16  1.3339289239757120e-15  2.0723010322215818e-16  2.2897668615880791e-15  3.0491711612524457e-16  4.3359390864529423e-15  4.3195564457055211e-15  2.2239339383690336e-16  7.9974801022447115e-15  9.6006421124465884e-15  7.5494162909599567e-16  1.9800150418476840e-16  8.9029181163047036e-16  8.3281804554981539e-16  1.0048341422855483e-14  2.6804716319445414e-15  7.9888195738947686e-16  8.7728451066855589e-15  9.9424736716321305e-15  8.9614009424626154e-16  1.6510405900550862e-16  3.2683173422830309e-16  5.7678860873336516e-15  8.3891354223412095e-16  8.1883361408557559e-16  9.0582036924408994e-16  8.9570633564861562e-16  2.1682397908661350e-16  8.9025086602311025e-16  2.1924821104566510e-16  1.6446049096653393e-16  9.1796733962433486e-15  9.1012292439178622e-16  2.6910523920412466e-16  7.6022812819284524e-15  1.9644644968204019e-16  5.5448890529714263e-15  9.0372355805387657e-16  9.0749017547527494e-16  9.0960485641238440e-16  9.0270202349363784e-16  4.6822895012655