<?xml version="1.0"?>
<VTKFile type="UnstructuredGrid"  version="0.1"  >
<UnstructuredGrid>
<Piece  NumberOfPoints="6486" NumberOfCells="12696">
<Points>
<DataArray  type="Float64"  NumberOfComponents="3"  format="ascii">0 2.5 0  0 0 0  2.5 0 0  2.5 2.5 0  1.25 0 0  2.5 1.25 0  1.25 2.5 0  0 1.25 0  1.25 1.25 0  0 0.625 0  0.625 0 0  0.625 2.5 0  0 1.875 0  2.5 0.625 0  1.875 0 0  2.5 1.875 0  1.875 2.5 0  1.770833333333333 0.7291666666666666 0  0.7291666666666666 1.770833333333333 0  0.9375 0.625 0  1.875 1.5625 0  0.642361111111111 1.163194444444444 0  1.341594827586207 1.883979885057471 0  0.46875 0.46875 0  2.03125 2.03125 0  0.3626104797979798 1.513178661616162 0  1.381740196078431 0.4564950980392157 0  0.9375 2.172619047619047 0  2.172619047619047 0.9375 0  2.096354166666667 0.4036458333333332 0  0.4036458333333333 2.096354166666667 0  1.684027777777778 1.163194444444444 0  0.3418803418803419 0.8693910256410255 0  1.642742622813391 2.162164207604464 0  1.275619849389031 0.8465650753054845 0  0.9136284722222221 1.434461805555556 0  1.732437511238546 0.3406962303960658 0  0.9714402568595876 1.029779313093998 0  1.52281746031746 1.485615079365079 0  2.1875 1.71875 0  1.06819722569879 0.2997236128493951 0  2.136114211309524 1.303478422619048 0  0.3125 0 0  0 0.3125 0  2.5 2.1875 0  2.1875 2.5 0  0.3200021620376328 1.192323085056694 0  0.6738456129277992 0.8304377375553881 0  1.757891808928991 1.861952730357003 0  1.5625 0 0  0.9375 0 0  0.3125 2.5 0  2.1875 0 0  2.5 0.9375 0  0 0.9375 0  0 1.5625 0  0.9375 2.5 0  2.5 0.3125 0  0 2.1875 0  1.5625 2.5 0  2.5 1.5625 0  0.7448220909826522 0.3003573636608841 0  1.027298850574712 1.871151477832512 0  1.331260495098891 2.197262878816185 0  1.207917681892289 1.582765010956622 0  0.4339993447432606 1.801186844743261 0  0.6337298768939392 1.443093039772727 0  2.049851190476191 0.6826636904761904 0  0.6584821428571428 2.219122023809524 0  1.89575676467455 0.9798457973793544 0  1.437570562095628 1.059380588255917 0  1.502090052505845 0.6987070896496241 0  0.2040860661083546 1.705323965099331 0  0.2083333333333333 0.46875 0  0.5070952039991439 0.2211150679997147 0  0.6916302856529919 0.5813591430410241 0  2.265625 1.953125 0  2.2265625 2.2265625 0  1.886424081252096 2.243391360417365 0  1.40625 0.202164758520858 0  0.2269345238095238 0.2269345238095238 0  1.152730869673694 0.5225850378741401 0  1.885631899587912 1.312095130148776 0  1.614808884009367 0.9049784971014416 0  1.890095442220658 0.5126535558463003 0  2.323168682795699 0.46875 0  2.268811725689575 0.2304742875213018 0  0.6002389442105756 1.967426444210576 0  0.1768313172043011 2.03125 0  0.2311882743104251 2.269525712478698 0  2.03125 0.176831317204301 0  2.280262553344767 0.6954945504579233 0  1.979219539285994 1.809922269642997 0  2.336309523809524 1.09375 0  1.09375 2.336309523809524 0  0.9314042474388009 1.662973812215543 0  0.1634067999087722 1.40625 0  2.337090640094896 1.40625 0  1.141616997467638 2.069311773587991 0  0.46875 2.338939559681489 0  1.542440307908715 1.734944797244472 0  1.556713687786879 1.956977865354753 0  0.8264238995344066 1.975424467820646 0  1.466326331454725 1.275271369760862 0  1.655675324257095 0.5444159974393489 0  0.3385416666666666 0.6479255698005697 0  0 0.78125 0  0.5236073939200119 0.984090461540625 0  2.091665741047893 1.519793517904215 0  1.71875 2.5 0  0.5356538886262603 1.623137930505009 0  0 1.09375 0  0.1932884281517095 1.015625 0  0.8569313582417669 1.2198915584249 0  0.8876981284879677 0.8329884081524883 0  1.115618488474214 0.7219586973356271 0  1.186950366204949 1.043465130075318 0  2.057459118787237 1.110823087309335 0  1.830651283878689 2.049810069572418 0  1.689107969301489 1.367247437031697 0  0.4921048768039656 1.298643370653124 0  0.8213975694444444 2.336309523809524 0  2.03125 2.5 0  1.049729400480002 1.283723261332814 0  1.308101375801673 0.6489479469700392 0  2.5 2.34375 0  0.4968777175037714 0.7562964879736076 0  1.40625 2.5 0  1.501347663534097 2.307027627307738 0  1.602813712048603 0.1926218191360736 0  0.8393082906308107 0.463778306132633 0  1.682663349152719 1.598471865581041 0  0.7774174680851571 1.560004941327907 0  1.554204170364662 0.3898593897892066 0  1.842184459051087 0.186443880058197 0  1.358107417651776 1.696381759610015 0  1.18859291992392 1.77598670078022 0  0.1875331222687418 0.7609599743339348 0  1.339536743965101 1.422080365801479 0  0.7788179348750389 0.9955343414928611 0  0.9062978492805438 0.1919636509126373 0  1.256007360640958 0.3160320559396114 0  1.09375 0 0  1.174986727221844 0.1594990293443933 0  2.34375 1.796875 0  2.318026474511116 1.589177949022232 0  2.34375 2.5 0  1.672742954892153 2.332882724550692 0  0.2683637361947215 1.874801596909639 0  2.174770749820102 0.5581009131310781 0  1.443279522965991 0.8870068372898454 0  0.3385416666666667 0.3571428571428572 0  0.78125 0 0  2.060421048269335 2.314363248763811 0  1.088078737088509 0.8967352118723447 0  1.087825368444708 1.454931510884769 0  2.018308232129541 0.8548495425854904 0  1.943987311736842 0.3246298523011434 0  1.71875 0 0  1.85337849796276 1.144833312386208 0  2.3486328125 2.1044921875 0  1.407588788651747 2.042968789119587 0  2.336309523809524 0.865366648092144 0  2.34375 0 0  2.5 0.15625 0  0.15625 2.5 0  0 2.34375 0  0.1638044648294291 1.242263417405867 0  0.356216654757926 1.032569427322806 0  0.3188217956111817 1.355736727000647 0  0.5924956460852111 0.36112522004736 0  0.6594216488965849 0.1603472116132387 0  1.841804599497131 1.72214349266521 0  0.15625 0 0  0 0.15625 0  2.115898634821499 1.894570904464496 0  0.7821877980253907 0.7129993435924866 0  1.003820447087786 0.4516053462784233 0  0.477562948779147 1.138333049293613 0  0.719493678605015 1.305655360135975 0  0.9772457618587566 2.020350128938537 0  0.8764738248887107 1.826219722709673 0  1.254787875123819 2.339010653832026 0  2.343597354852534 1.249982759769001 0  0.78125 2.5 0  0.46875 2.5 0  2.5 1.40625 0  1.09375 2.5 0  2.5 0.78125 0  2.5 1.09375 0  2.03125 0 0  2.5 0.46875 0  1.40625 0 0  0.46875 0 0  0 0.46875 0  0 1.40625 0  0 1.71875 0  0 2.03125 0  2.5 1.71875 0  2.5 2.03125 0  2.005424054645407 1.653223486966518 0  0.1538730573856537 1.559850281736677 0  2.33984375 2.33984375 0  1.166539506212474 1.922878979538754 0  0.3914885633949916 1.65887232812171 0  0.5795503163042564 1.766243562569382 0  0.399533125920212 1.946786875081388 0  0.7866324979014098 2.127719094551316 0  0.3654683023546834 0.1495701132219454 0  0.1527388747131078 0.6116379440619215 0  2.013737577140188 1.391056634712135 0  1.17635437372994 2.213329084238133 0  1.737118141866284 1.010577140843115 0  2.200707118087222 1.164723314085963 0  1.697018908736685 1.993548551451517 0  0.5387621649009668 0.6070503962352419 0  2.032805785855952 0.5330427622570983 0  1.082699501358059 1.667818725183932 0  1.503819781540653 0.5468420196858188 0  2.015409142866072 2.175941657590429 0  1.752057611265444 0.869642097111018 0  0.612251684107783 2.356045720700959 0  1.902817102342857 0.6607642211999982 0  2.159616561739693 0.7867739969338844 0  0.5120038350106624 2.197302352398502 0  1.888200216011548 1.919501662489862 0  1.495909909726654 2.16028358757309 0  0.489139876703609 1.443203008943564 0  0.8819175670410521 0.3301172743913011 0  1.882591144370812 0.8155965192707721 0  1.133979796994841 1.172526771862882 0  2.206217447916667 2.084147135416667 0  2.20361328125 2.36279296875 0  1.395746985657004 1.556054166359645 0  1.704383111516207 1.734750450338683 0  0.9575737847222222 2.36274223823052 0  1.035150984253136 0.1302833343179028 0  1.383966125325753 0.7651479963479179 0  1.64003252158672 0.6824316405528895 0  2.22550785055421 1.487078576356817 0  1.760964431499756 1.48495222505201 0  1.276460980673788 2.004207003584658 0  0.1341477688427096 1.828777507920502 0  1.542261434180652 1.155296658359034 0  1.334627911613854 0.9696897472490321 0  1.30794231473696 1.119420615785191 0  0.7028260459857245 0.4438906910721139 0  1.625757433094055 1.84268057552138 0  0.9818707849053143 1.165603626132254 0  2.0086489901463 1.243134585689553 0  1.934584460420609 2.374094051915812 0  1.798434376789567 2.38671361912528 0  1.206314791201715 1.382064292497919 0  0.6333752893366955 0.7023738550008095 0  0.7796219811205605 1.42573253164258 0  1.564399711917382 1.026040828857629 0  0.3385416666666666 0.4889012896825397 0  0.1041666666666667 0.390625 0  0.989112246382566 1.543537365516289 0  2.025724425454636 0.9846960595520872 0  0.6602885475034063 2.086117390485779 0  1.607130551925032 1.267198646640915 0  0.1317864544877056 0.8896173683400176 0  1.755387840017567 2.230364320056445 0  1.301540702984401 0.1216289692748247 0  1.433170657577442 0.3331052752740999 0  1.500459610550388 0.113513924782439 0  0.6494291520606965 1.029586599619295 0  1.010146149868299 0.794897284196169 0  0.3700844198238017 2.235390157870766 0  0.3360891767780704 2.36656279435396 0  1.876856241037701 1.437150669863757 0  1.778674102957329 1.245979347269706 0  0.5472829890977179 0.1005517127039925 0  0.4669074189005698 0.3416784232954367 0  1.472765289289269 1.850899166481903 0  1.555853593327178 1.608452097912802 0  0.6708955559113426 1.646561631116984 0  0.8164699620322933 0.5924479455478063 0  0.3167738989468366 1.758696809749795 0  0.2788007305565096 1.605499483471246 0  0.7821720982350511 0.181524936294752 0  1.376812251214195 2.313340247908297 0  1.785652202614777 0.5962261755537186 0  1.761467296310972 0.4679567244718574 0  2.2265625 1.8359375 0  2.3828125 1.9140625 0  0.5279531607054191 2.071552361614785 0  2.397573269551114 0.234375 0  2.383578172599618 0.3589298466020009 0  0.1024267304488855 2.265625 0  0.1164218274003825 2.141070153397999 0  0.2696857594953064 2.135405441512016 0  2.164961300137334 0.1375322943529536 0  2.137757548369486 0.2724194778647587 0  2.238873711826398 0.3626419179496562 0  0.1001414910226386 0.234375 0  0.2176339285714286 0.3478422619047619 0  0.2503620791333544 0.1061694061057066 0  2.336445461915368 0.1250451055247424 0  0.2154004640409726 2.3918124
[...]
<PointData  Scalars="f_16-2"> 
<DataArray  type="Float64"  Name="f_16-2"  format="ascii">-1.3589237729194939e-22  -9.0067646262850509e-22  -2.2630690423941710e-27  -2.6740993798060430e-25  -3.5120710771103739e-21  -2.9833398379177703e-23  -7.6268853056190215e-22  -9.9349566082590435e-17  -2.4566688793006352e-16  -1.3176019016290901e-16  -1.6267674143785586e-20  -1.7235646618112972e-22  -6.6839254223530418e-19  -3.1217448654693231e-26  -1.3489079999616814e-23  -2.7609508818662673e-23  -1.1120533135259471e-22  -5.6476842544842247e-20  -4.5374647316685333e-18  -1.1623480777434513e-16  -5.5453835255338334e-19  -4.6699260182671219e-16  -2.9739873121939588e-18  -5.2466883566551138e-16  -5.5668527227778309e-21  -2.2566018567626050e-17  -1.2399180093241938e-19  -5.2431744123560964e-20  -9.6662995184039688e-22  -1.8301428308403511e-24  -4.6233932217733705e-20  -5.0782449933394464e-18  -3.7115238908168622e-16  -3.4220297622678458e-20  -6.0408679150347349e-17  -2.1256783403230210e-16  -1.7801146548979513e-22  -8.0804119139583168e-16  -2.1286171410384348e-17  -5.3333803091270720e-21  -1.5777700861537034e-19  -1.7318768024700801e-20  -9.9309555813953522e-21  -1.3474139790408855e-17  -4.7314544390703752e-24  -6.8458225752161594e-24  -1.2766974801069399e-16  -1.1485013018399285e-15  -3.0689373359379344e-19  -3.2735527749835668e-22  -1.2234192891123279e-20  -1.1795678304848358e-22  -2.0342516721247498e-25  -2.1925726984757211e-24  -1.8099920798405935e-16  -1.6215716726915113e-17  -2.7488613865132074e-22  -1.1431675210352868e-27  -1.2642073465471309e-20  -4.9325142737346152e-22  -6.3365276693331900e-23  -2.7604949996694605e-18  -3.5396030256999898e-18  -5.6172054374786711e-20  -6.1385911682830482e-17  -1.7708811031395952e-18  -7.4803356508561712e-17  -3.4769805575332749e-22  -9.3071062232460885e-21  -1.1988906055586027e-19  -4.9468006304731731e-17  -1.4335458759703049e-18  -4.6158826224143154e-18  -6.1833266790398518e-16  -4.2579933630171743e-18  -3.7432837221270885e-16  -5.1478055095442812e-22  -9.4568725804100583e-23  -2.1793481746157671e-21  -1.6470172540496127e-21  -5.1383168436096566e-17  -4.0109866039900767e-18  -5.6136916879231354e-19  -3.1071710366081559e-18  -3.2928971917265096e-22  -6.3799236431000010e-26  -4.3766305163762662e-26  -2.8898932049375946e-19  -1.0270792632726785e-19  -3.6069734097673961e-21  -1.5577166545238766e-24  -6.3673425255487243e-24  -4.8476861771567625e-20  -1.8928898164026077e-22  -6.5668083365837513e-21  -2.8943221988451363e-17  -4.6840602249128405e-17  -7.7668124635323825e-22  -3.3716840703909297e-19  -1.5705975603789439e-21  -4.3851544732925689e-18  -5.2561269365685068e-19  -5.5390298265812961e-19  -5.3680336623513527e-17  -1.8785958397924617e-20  -7.6653022229668867e-16  -1.7667244916046994e-16  -6.1753538997686479e-16  -3.2796987119241361e-20  -2.9258118890754658e-22  -1.0763873267624727e-17  -1.5052841225658274e-16  -1.7384768341353049e-16  -6.3645831960544816e-16  -6.6562052770735511e-16  -7.4911416276687470e-17  -3.1651151615449672e-16  -2.4552726180676722e-20  -2.8544906715576818e-20  -5.9679511624176352e-18  -1.1595641228933629e-16  -2.4876123079467952e-21  -3.3155144711497463e-23  -4.2150934025710677e-16  -5.5831778274172625e-18  -1.2096559245218527e-24  -1.0466189086217946e-15  -6.6849582589935494e-22  -8.6991261591971103e-21  -2.5705379454730730e-22  -3.0854431534782036e-17  -3.2606095112784154e-18  -4.4949614116838129e-17  -4.6827445916695070e-21  -1.6101001376383472e-23  -1.6494769795719238e-17  -1.1509603897137738e-17  -2.2607145936653205e-16  -9.3266407094293684e-17  -1.0767088940288141e-15  -5.1462728184874391e-20  -3.1727805264445594e-20  -7.4281142763484899e-21  -7.2957603249448473e-21  -3.8510965857826666e-22  -1.0346387310667901e-21  -1.3976245948153019e-24  -3.2395458899305251e-21  -7.7828825286791450e-19  -4.4749651319061821e-24  -1.7099975951252072e-17  -3.8003602858296475e-16  -1.5702687138769418e-20  -1.9853175252187198e-22  -3.3041558204590204e-16  -1.8059802850166501e-16  -5.5086374437858654e-21  -7.7548704377926993e-24  -7.7830829044639509e-23  -5.5039721482504350e-19  -5.9936383391331983e-23  -3.6368537644007497e-19  -1.8737988137003782e-23  -2.2716222793406523e-26  -1.6932202477737891e-27  -1.3071621546997851e-22  -1.0622213893482764e-21  -9.7993292132281132e-17  -2.3959829576154487e-16  -6.0528219140318411e-17  -4.9137824808055498e-17  -1.3775315812966022e-19  -3.4846213235772344e-19  2.0468753245891648e-23  -1.7889646355682496e-19  -5.2584162451293163e-21  -5.7400082313868497e-16  -5.9890378504558695e-18  -2.6121730778166153e-16  -2.8376973478158184e-16  -5.0197822950404142e-19  -4.2059911036110524e-18  -7.8922756082717093e-21  -4.0186840518847280e-22  -1.7740733389941301e-22  -1.3101096446218286e-22  -5.6269407662306986e-23  -5.3586698847997197e-22  -3.1312482517723905e-25  -1.0574666335080437e-23  -1.9558714011339146e-24  -2.1956291091359551e-27  -1.1119384452533120e-21  -1.4763175765168627e-20  -7.5098387047498091e-17  -4.8912497710528126e-17  -3.9714282977577655e-18  -1.1392841018375763e-19  -5.0047252182284252e-23  -1.2241457800126271e-23  -7.7548391279819180e-20  -1.6186532055581444e-17  -8.1183622309565403e-24  -2.2541291796351774e-18  -7.4082587881230535e-18  -2.7279270130231890e-18  -3.3566414301344975e-19  -5.5290546707457587e-20  -1.2509082389986724e-18  -2.1699806947731265e-16  -1.1005782840017714e-19  -5.1076296904864436e-20  -1.3346458634370794e-18  -2.9186741107158598e-21  -1.5895316785017513e-19  -9.0131653069282089e-16  -4.0031159597887948e-23  -3.4257645464714452e-17  -1.3374952111613946e-19  -1.4511926323912875e-21  -3.7166424727236949e-19  -1.1507132311692754e-21  -2.7744461516875058e-21  -1.9940902179820894e-22  -1.2366405787540022e-20  -5.7048884605445103e-20  -6.3643254644527976e-20  -4.3728429478605284e-17  -1.8218494557984397e-18  -2.6419805884309395e-20  -4.5212350535279319e-16  -4.2304634481017012e-22  -2.3873092729643589e-23  -3.3846566709481747e-17  -1.1599357914737059e-18  -2.5429428867071595e-21  -1.1981310330221147e-20  -1.0601259754890150e-17  -1.8098166275809743e-19  -5.1816210825364789e-21  -2.4509927673239105e-18  -8.1905252095614736e-19  -1.3662441066227050e-18  -2.3167136153646982e-17  -7.8519004797956956e-17  -1.6408187999262598e-16  -7.9066124291202379e-17  -1.0651964092209913e-18  -6.9797716316302810e-16  -1.0076814138174143e-19  -3.1605918674284213e-22  -7.1813629230856295e-22  -1.9752830582341685e-16  -9.7943449091038532e-16  -1.4815956670796194e-16  -1.2060115256522854e-17  -8.8861000670960422e-16  -2.2700190260204029e-16  -9.6858530556939587e-17  -1.5942056667743395e-20  -6.1765282120818271e-20  -1.4768415909179021e-17  -1.8871289789287298e-16  -7.6961519285929982e-21  -2.7847665586447399e-21  -7.4177471117078350e-21  -5.7623714029021753e-22  -8.3230078786500120e-16  -2.9269982965351053e-16  -7.2628189890352483e-21  -8.2963681725909417e-22  -6.4803167239519730e-19  -2.0109242704339626e-18  -5.4538487988463146e-20  -1.0562659690757436e-16  -2.4012685040674431e-18  -8.6007340046479049e-18  -1.2754384021567595e-17  -2.0278068859485740e-16  -2.7506218684518152e-18  -1.1520346827796598e-17  -1.0970444978501892e-19  -9.8668504204787716e-21  -6.3978943290334516e-21  -1.0070987888172028e-21  -1.9351675243178359e-21  -1.1814851377912315e-22  -7.1208656355989875e-20  -5.0404435716396221e-27  -7.4065035991536427e-27  -4.3447487153288581e-21  -2.6976761660745717e-20  -2.9214743074006319e-20  -2.4547688088535537e-25  -3.5377448808756230e-25  -9.9923913671099886e-26  -2.8950940150422744e-17  -6.0473152883129329e-16  -1.1987413022658134e-19  -1.7666518668841937e-26  -5.7806094036213332e-22  -3.6268027738083179e-20  -6.9499753507172966e-20  -7.9438672510749226e-23  -3.4108282149205699e-17  -4.2242910253998275e-19  -1.2912515597493948e-18  -1.9790136317735873e-19  -7.8879950205125846e-18  -7.8343922381543710e-16  -3.2799883254585006e-19  -5.8574825134975413e-24  -2.0145136673295410e-25  -1.9279252713378386e-24  -1.3385957419610436e-23  -2.8579618575869740e-16  -8.9894529503829540e-19  -6.3871181104446297e-19  -3.1871002645407965e-18  -8.3947085559712486e-21  -2.6391940955856095e-17  -7.7340726234856350e-23  -7.1599231817750096e-16  -1.5473827783664034e-17  -1.0344910428400665e-17  -3.7522319484774415e-23  -1.6168308427905678e-20  -1.0914101441498946e-21  -1.6539279899351023e-19  -1.3604060002335332e-16  -2.6161956064543052e-23  -1.6333438341633872e-16  -2.1622343853642852e-16  -2.1853514843168416e-20  -1.8624929846838831e-20  -1.9743807391918820e-23  -2.1090945579349807e-21  -3.3243221147763471e-17  -7.2360164751735934e-17  -1.9065068525286216e-22  -2.8016200333177673e-21  -9.6099574762995163e-16  -1.6075027956148892e-22  -5.8716034896848678e-19  -6.5677186576419792e-21  -3.1096192483536929e-23  -1.9382166187379910e-22  -1.3517662359669184e-19  -7.9303683837997660e-17  -6.4601070780459041e-22  -4.4110935262368836e-16  -4.2870385622172357e-16  -9.8448304262982739e-16  -6.2959019590243075e-16  -2.6730826446585614e-21  -8.6219115742547268e-18  -1.2356083097071014e-16  -1.4566134391388456e-22  -6.7073731458724561e-23  -2.0324867657010165e-21  -5.0439245941530255e-22  -1.2416647108618215e-24  -1.5464407833400486e-19  -2.0170416826076035e-20  -6.8722263751829727e-19  -3.3952800701931136e-23  -1.0254976578397389e-21  -3.9522162177997772e-20  -1.8757108521162530e-19  -1.4438988166861557e-18  -1.2695549432117690e-16  -3.1065668822267408e-17  -3.5890449074291155e-17  -5.1973288328943432e-22  -1.2553091036426506e-17  -6.1577524502380998e-16  -1.9169182246250397e-16  -1.5541467484595224e-21  -1.0204435926666070e-15  -3.6570635225002960e-16  -9.2135641785551171e-16  -6.3295699104132409e-16  -3.3626373045162170e-21  -3.3635451642612770e-16  -1.1620256274941768e-17  -8.1760214011216295e-17  -1.1688111208795850e-18  -1.4647128248714812e-19  -1.6626606366299184e-22  -8.5330394545631601e-17  -2.7563510736773065e-19  -3.9525919777033297e-18  -1.4309846138543724e-20  -2.1989249080804362e-16  -9.5873409484348995e-16  -1.4412457106017116e-21  -5.0041305050226085e-17  -3.6018341453642195e-22  -1.1037597779531240e-21  -2.9657876116913387e-16  -1.5384162568993861e-16  -1.7422158919595711e-16  -9.0315198429434637e-20  -5.2619590992842472e-21  -6.7589141077301325e-17  -1.8085335751584878e-20  -2.4006354384975078e-21  -2.5817509017215574e-17  -1.0676749478029657e-15  -6.4444213143258766e-27  -1.4179373536231395e-17  -3.4479864433595578e-17  -1.1793145501385985e-16  -6.5948486019753866e-25  -4.5504207610651489e-18  -1.8349501883051631e-17  -1.7297056041611126e-18  -1.0523310873845832e-15  -4.7732240658403210e-16  -1.4684661342089691e-22  -3.3518912920218817e-16  -1.1513310697270931e-18  -1.3775109247753030e-19  -1.8474175608916939e-20  -9.8496026133755243e-17  -1.3480956090218597e-16  -1.0823176464225356e-18  -1.0614700153660618e-18  -1.0422093977466677e-19  -1.8025941695130867e-20  -1.6472628849840952e-20  -1.2380351306554291e-16  -7.0568592417481757e-22  -3.3611435154115759e-21  -1.6202104313677970e-24  -6.2115539018852923e-21  -2.4100040108965498e-19  -1.3021296706645670e-21  -2.1495079485963852e-19  -2.2985658826765998e-20  -1.4958737962397304e-24  -3.6048073250349604e-18  -5.3340849499054718e-16  -3.4171362427475034e-23  -5.1938777920971327e-24  -1.1415328711818088e-15  -3.3824116263585307e-18  -2.7201380339225772e-18  -2.3799539730038857e-19  -7.1767023957046254e-26  -2.8967039898670159e-17  -1.5002508922214626e-16  -2.8464463696358516e-20  -1.0953358697179804e-22  -1.2637066961814781e-22  -3.5857985796606462e-22  -1.3581524889286473e-16  -8.0216984787028116e-16  -2.7290959067836975e-16  -1.8139837766021343e-16  -6.7026172335251112e-18  -1.3359719561122229e-19  -8.7152448965843079e-17  -6.2958491173003182e-25  -9.6779047713633367e-25  -6.1364552283189487e-17  -1.0277840094363875e-20  -4.2565451709669126e-16  -2.0526685541175204e-20  -3.5777398334709000e-16  -4.8961831517234840e-24  -1.4537913075631345e-17  -6.0880676499791294e-17  -3.0091320910517920e-20  -3.7680330008505383e-20  -6.3243385899624994e-21  -8.9981138466752696e-18  -4.2477861888960869e-18  -3.6205420135451706e-17  -3.1574785288976222e-19  -1.1605451361134852e-22  -6.5743320667815108e-22  -1.0908507979452164e-22  -3.4030913280573350e-21  -2.7156034318192860e-16  -3.8998134679794677e-22  -1.2619522813712283e-16  -2.2665492198924034e-20  -4.9083987024755405e-16  -2.8196138133216398e-20  -5.3411278999877916e-17  -2.5195277209615760e-20  -2.2729216496452407e-20  -1.0718442594004873e-17  -8.7927508333100048e-25  -9.8011230955277074e-22  -3.3152051245895727e-19  -7.7784822183654324e-21  -5.2802833444609271e-19  -1.4986017836864024e-21  -3.4603583077659632e-22  -9.5158086956177949e-18  -3.1000533068479155e-16  -1.4291946535888941e-20  -7.4509210439993994e-27  -2.1821909994219624e-26  -1.5981593802510566e-21  -1.4142093064513543e-20  -1.1628219631370065e-18  -1.9240309179270464e-18  -3.2865680955284924e-19  -1.0859239880006555e-22  -1.1600316748710274e-18  -1.9443604349673779e-19  -2.6891074306381574e-17  -3.5796394612627637e-16  -1.0360612033353920e-19  -1.6949505333197106e-18  -2.0839184162051524e-19  -3.8780165755387750e-22  -5.0996358866363290e-22  -7.5143971009753812e-21  -5.1434698219090799e-19  -1.6201234443627003e-16  -1.4505600624208174e-23  -1.4682867720837932e-20  -1.5512557230748496e-18  -1.5924777897005393e-18  -4.9201948772281326e-19  -2.7342627542142609e-19  -1.1004515182998565e-19  -7.4028361514816112e-21  -4.0576391548358895e-23  -4.3889888433275091e-21  -1.1914366492721293e-25  -3.5302278952609797e-21  -9.0296251057702418e-22  -2.7706283883135201e-20  -9.4204976942246479e-23  -4.7030167669726413e-22  -1.6136986916038166e-22  -2.0905665056968495e-27  -1.0693111976743212e-19  -4.8851884535524743e-24  -1.6396971115621423e-16  -2.0350510653619878e-16  -3.7916428294185688e-18  -1.0864611128200506e-20  -8.1879330778670396e-22  -5.8334394316597735e-18  -1.5822854980458759e-23  -1.1215927786395158e-22  -3.9660331310884354e-17  -3.5076772148898635e-17  -2.2678692649989358e-26  -1.2510036936891361e-20  -1.1286136833888139e-17  -5.6010173536334007e-18  -1.0307582521277174e-19  -9.2917350479418827e-21  -6.8651024659411888e-26  -2.2704154913966613e-16  -7.6575298908461322e-16  -4.1027828591782911e-16  -4.7510901550796158e-18  -4.7248372244636233e-27  -1.8332532493888622e-18  -1.8365269788775000e-16  -2.7331247377057555e-25  -1.6187038239463018e-21  -6.2002385323516635e-22  -3.0668826131174139e-20  -1.2391187118753195e-19  -3.8401719030833051e-24  -1.8101127192045427e-17  -2.2065818290185766e-21  -3.1607037553400858e-23  -2.5899960763196025e-16  -2.7076168683922838e-17  -2.0158774769452093e-17  -1.7159754027005534e-21  -5.4492445105710426e-24  -5.8664279425538455e-18  -4.0169759073823698e-19  -3.8098171849841428e-19  -8.6917029406110079e-19  -1.8903654333335415e-23  -1.7823380630328097e-16  -2.0796835362843257e-16  -1.4875043899283088e-16  -2.0161564601733147e-18  -9.0647272302413666e-17  -1.6684801250559788e-16  -2.6934979188158357e-18  -3.3738653775287489e-21  -8.0772883012076617e-20  -1.8850017492446032e-17  -5.9317317380421873e-17  -1.9735802834523704e-17  -2.6705770332123537e-20  -1.1842939686835873e-18  -2.1458094923855283e-16  -2.0463622952871350e-17  -3.6812237092141663e-23  -4.9778101605524312e-24  -1.1703339100743398e-16  -1.7553572935190824e-16  -9.5515380188233185e-17  -3.8505364241543167e-17  -3.8898440447243301e-16  -4.7422423951003550e-19  -5.1025794190486012e-22  -1.0046964143781855e-20  -1.7242432716224914e-21  -5.6505320809694536e-25  -1.9938984309622067e-22  -1.1235642862749404e-18  -4.4067068626553252e-22  -2.0199567740190164e-16  -1.6060077616870311e-20  -5.2089449665085232e-18  -1.9518120045242518e-20  -7.2448991557419505e-21  -7.9864536995182658e-22  -2.1582036341581274e-21  -4.7167140416537941e-21  -2.0249265127574634e-21  -2.6332734156855998e-23  -6.9345613335264748e-18  -3.5350753392920095e-20  -4.2792733240131951e-27  -6.0752494549022849e-16  -9.2391176120631026e-16  -1.3500329800948556e-18  -5.5647694206732811e-20  -3.8278080805736652e-17  -7.0285718295374996e-19  -7.0469281426040902e-23  -4.6981667648261988e-20  -1.2877218629820049e-25  -3.0530707137870263e-24  -3.3397812240886605e-20  -6.3344825224463198e-21  -9.0439425318670156e-16  -5.4417175392897621e-18  -4.9950301481154910e-20  -1.7929301102081535e-19  -3.7424546447686370e-18  -6.3462774044137696e-21  -7.0680051774033503e-23  -1.0238455385360408e-17  -5.4573088232934635e-16  -5.7273762402742391e-18  -2.1427309488382647e-19  -6.0850414386288463e-22  -9.7894178328959361e-23  -3.4092764100699297e-20  -9.8699971078815790e-17  -1.7859139534229692e-21  -1.8934452105535753e-22  -5.1819277157865425e-21  -2.8252359830574868e-24  -2.2539360376389350e-22  -1.6463803443292304e-23  -3.5632434439789146e-22  -1.4160002991878503e-22  -6.8980427339244033e-22  -8.6241133828083637e-18  -1.6870915704255128e-22  -6.4254912289662156e-23  -3.0318700258316573e-23  -1.6578641752670548e-22  -1.8529267332422841e-23  -4.1704601823378259e-23  -6.2368249943156360e-23  -1.6920746187570133e-16  -1.2510262859256057e-16  -7.3910259412467015e-17  -6.7631521401826767e-22  -1.5651263872690040e-16  -1.4111977943245404e-20  -5.3718627943556791e-24  -2.9881280473354561e-19  -1.2454451132811169e-22  -4.2273794970471396e-21  -3.5921545602321119e-21  -1.2846879302809550e-27  -1.5563910856189158e-20  -6.5771857144313192e-22  -2.0044985246639322e-18  -4.3866187967268471e-17  -1.8320893627852287e-22  -2.3903022448322571e-24  -5.6507932399995778e-25  -5.4210161631861334e-25  -2.8171175854454740e-17  -5.4043239833510412e-22  -1.0516701138652225e-16  -4.1048241287791868e-23  -8.3592208752483679e-24  -1.2312721351216860e-27  -8.2867953013888658e-21  -6.0088648053477371e-20  -4.9548468093155310e-17  -5.3571345057411352e-22  -6.3159720624947488e-19  -2.3318716516404764e-21  -5.0706684684998852e-16  -1.1019696647136667e-15  -7.6454025072049186e-16  -1.8002386323361863e-21  -2.4608420063167304e-20  -1.0764705083796385e-15  -1.3076517701425494e-16  -1.3272248064051456e-19  -4.5437339682324107e-16  -1.0795128830087626e-17  -1.7253992828042715e-19  -3.0519407707525623e-17  -1.7174908659189224e-17  -9.8498046570832727e-18  -6.8570903603914604e-17  -2.1062145111307800e-16  -3.5491972832476710e-16  -8.8566537232875233e-22  -1.1957566536887971e-18  -1.3723386780854365e-18  -6.9087870964982432e-21  -1.1483902390909473e-15  -1.9571952441062703e-22  -1.9749082427508384e-17  -4.0277524097843173e-19  -5.7836934163494912e-16  -3.0414519016266928e-16  -5.3254768067417900e-17  -5.3906828974287094e-19  -1.1976152742689132e-19  -9.1226452818774622e-16  -8.2283829007526974e-16  -3.0077978345373550e-23  -2.0173745526744351e-22  -8.4599589369246087e-16  -5.4695619859905102e-22  -3.5272037408738054e-23  -1.3175374672280934e-16  -3.3083521127920818e-18  -2.3952441150360373e-16  -3.1891177708420672e-18  -2.2695911766464400e-16  -2.6861809524017194e-21  -7.1441857516973095e-18  -5.2707792249416479e-18  -6.7882147953028197e-20  -3.3129853706951714e-19  -2.0314367746011550e-19  -5.3072638196689064e-20  -6.1547063169290422e-20  -2.8329416241726206e-20  -4.8808909211346082e-17  -4.4345964151044126e-19  -2.1301222329401529e-18  -2.4784880092858286e-17  -8.0471387149978141e-19  -5.2355383019097797e-19  -4.9677099436610148e-21  -2.2981273436650922e-17  -1.0306016130824160e-20  -1.6835706777901320e-21  -7.3891190714012995e-20  -9.0828727089378176e-19  -1.2841654201353183e-17  -1.0008447195372027e-17  -3.7913216726299913e-18  -3.6169702801491849e-16  -3.9985251488607829e-25  -2.1838956606307095e-20  -2.0081875947873545e-20  -9.5642312367758107e-21  -1.5786999072348760e-20  -5.3086419816840531e-21  -6.0707939546865039e-21  -1.5872856988771424e-17  -1.8177841399874134e-21  -3.7792533861461051e-21  -3.4677527405151759e-24  -8.0697787268718085e-21  -1.9839207380018774e-17  -1.0648727036830221e-16  -1.1007345159013788e-16  -1.3422989050390916e-17  -2.3419889074920810e-24  -6.2815293982801671e-16  -2.6731979288845643e-21  -2.2565122892420097e-21  -7.9823877552328669e-16  -1.0486979815184084e-23  -2.559753682