<?xml version="1.0"?>
<VTKFile type="UnstructuredGrid"  version="0.1"  >
<UnstructuredGrid>
<Piece  NumberOfPoints="6486" NumberOfCells="12696">
<Points>
<DataArray  type="Float64"  NumberOfComponents="3"  format="ascii">0 5 0  0 0 0  5 0 0  5 5 0  2.5 0 0  5 2.5 0  2.5 5 0  0 2.5 0  2.5 2.5 0  0 1.25 0  1.25 0 0  1.25 5 0  0 3.75 0  5 1.25 0  3.75 0 0  5 3.75 0  3.75 5 0  3.541666666666667 1.458333333333333 0  1.458333333333333 3.541666666666667 0  1.875 1.25 0  3.75 3.125 0  1.284722222222222 2.326388888888889 0  2.683189655172414 3.767959770114943 0  0.9375 0.9375 0  4.0625 4.0625 0  0.7252209595959597 3.026357323232324 0  2.763480392156863 0.9129901960784315 0  1.875 4.345238095238095 0  4.345238095238095 1.875 0  4.192708333333333 0.8072916666666664 0  0.8072916666666665 4.192708333333334 0  3.368055555555555 2.326388888888889 0  0.6837606837606839 1.738782051282051 0  3.285485245626782 4.324328415208927 0  2.551239698778062 1.693130150610969 0  1.827256944444444 2.868923611111111 0  3.464875022477093 0.6813924607921316 0  1.942880513719175 2.059558626187995 0  3.04563492063492 2.971230158730159 0  4.375 3.4375 0  2.13639445139758 0.5994472256987903 0  4.272228422619047 2.606956845238095 0  0.625 0 0  0 0.625 0  5 4.375 0  4.375 5 0  0.6400043240752655 2.384646170113389 0  1.347691225855598 1.660875475110776 0  3.515783617857982 3.723905460714006 0  3.125 0 0  1.875 0 0  0.625 5 0  4.375 0 0  5 1.875 0  0 1.875 0  0 3.125 0  1.875 5 0  5 0.625 0  0 4.375 0  3.125 5 0  5 3.125 0  1.489644181965304 0.6007147273217681 0  2.054597701149425 3.742302955665024 0  2.662520990197781 4.39452575763237 0  2.415835363784578 3.165530021913244 0  0.8679986894865213 3.602373689486522 0  1.267459753787878 2.886186079545454 0  4.099702380952381 1.365327380952381 0  1.316964285714286 4.438244047619047 0  3.7915135293491 1.959691594758709 0  2.875141124191255 2.118761176511833 0  3.00418010501169 1.397414179299248 0  0.4081721322167092 3.410647930198662 0  0.4166666666666666 0.9375 0  1.014190407998288 0.4422301359994293 0  1.383260571305984 1.162718286082048 0  4.53125 3.90625 0  4.453125 4.453125 0  3.772848162504192 4.48678272083473 0  2.8125 0.404329517041716 0  0.4538690476190476 0.4538690476190476 0  2.305461739347387 1.04517007574828 0  3.771263799175824 2.624190260297553 0  3.229617768018734 1.809956994202883 0  3.780190884441317 1.025307111692601 0  4.646337365591398 0.9375 0  4.537623451379149 0.4609485750426037 0  1.200477888421151 3.934852888421152 0  0.3536626344086022 4.0625 0  0.4623765486208503 4.539051424957397 0  4.0625 0.353662634408602 0  4.560525106689535 1.390989100915847 0  3.958439078571988 3.619844539285994 0  4.672619047619047 2.1875 0  2.1875 4.672619047619047 0  1.862808494877602 3.325947624431087 0  0.3268135998175443 2.8125 0  4.674181280189791 2.8125 0  2.283233994935276 4.138623547175983 0  0.9375 4.677879119362977 0  3.08488061581743 3.469889594488945 0  3.113427375573758 3.913955730709506 0  1.652847799068813 3.950848935641292 0  2.932652662909449 2.550542739521724 0  3.311350648514189 1.088831994878698 0  0.6770833333333333 1.295851139601139 0  0 1.5625 0  1.047214787840024 1.96818092308125 0  4.183331482095785 3.03958703580843 0  3.4375 5 0  1.071307777252521 3.246275861010018 0  0 2.1875 0  0.386576856303419 2.03125 0  1.713862716483534 2.439783116849799 0  1.775396256975935 1.665976816304977 0  2.231236976948428 1.443917394671254 0  2.373900732409897 2.086930260150635 0  4.114918237574474 2.221646174618671 0  3.661302567757379 4.099620139144836 0  3.378215938602977 2.734494874063393 0  0.9842097536079312 2.597286741306247 0  1.642795138888889 4.672619047619047 0  4.0625 5 0  2.099458800960004 2.567446522665629 0  2.616202751603346 1.297895893940078 0  5 4.6875 0  0.9937554350075428 1.512592975947215 0  2.8125 5 0  3.002695327068194 4.614055254615477 0  3.205627424097207 0.3852436382721472 0  1.678616581261621 0.927556612265266 0  3.365326698305438 3.196943731162083 0  1.554834936170314 3.120009882655813 0  3.108408340729323 0.7797187795784133 0  3.684368918102174 0.3728877601163941 0  2.716214835303553 3.39276351922003 0  2.37718583984784 3.551973401560441 0  0.3750662445374837 1.52191994866787 0  2.679073487930202 2.844160731602957 0  1.557635869750078 1.991068682985722 0  1.812595698561088 0.3839273018252746 0  2.512014721281916 0.6320641118792227 0  2.1875 0 0  2.349973454443689 0.3189980586887866 0  4.6875 3.59375 0  4.636052949022233 3.178355898044465 0  4.6875 5 0  3.345485909784306 4.665765449101383 0  0.536727472389443 3.749603193819277 0  4.349541499640203 1.116201826262156 0  2.886559045931982 1.774013674579691 0  0.6770833333333334 0.7142857142857143 0  1.5625 0 0  4.120842096538671 4.628726497527622 0  2.176157474177018 1.793470423744689 0  2.175650736889416 2.909863021769539 0  4.036616464259081 1.709699085170981 0  3.887974623473683 0.6492597046022868 0  3.4375 0 0  3.70675699592552 2.289666624772415 0  4.697265625 4.208984375 0  2.815177577303495 4.085937578239174 0  4.672619047619047 1.730733296184288 0  4.6875 0 0  5 0.3125 0  0.3125 5 0  0 4.6875 0  0.3276089296588581 2.484526834811734 0  0.712433309515852 2.065138854645612 0  0.6376435912223634 2.711473454001295 0  1.184991292170422 0.7222504400947201 0  1.31884329779317 0.3206944232264773 0  3.683609198994263 3.44428698533042 0  0.3125 0 0  0 0.3125 0  4.231797269642997 3.789141808928991 0  1.564375596050781 1.425998687184973 0  2.007640894175573 0.9032106925568466 0  0.955125897558294 2.276666098587227 0  1.43898735721003 2.611310720271951 0  1.954491523717513 4.040700257877075 0  1.752947649777421 3.652439445419346 0  2.509575750247638 4.678021307664052 0  4.687194709705067 2.499965519538002 0  1.5625 5 0  0.9375 5 0  5 2.8125 0  2.1875 5 0  5 1.5625 0  5 2.1875 0  4.0625 0 0  5 0.9375 0  2.8125 0 0  0.9375 0 0  0 0.9375 0  0 2.8125 0  0 3.4375 0  0 4.0625 0  5 3.4375 0  5 4.0625 0  4.010848109290813 3.306446973933037 0  0.3077461147713075 3.119700563473354 0  4.6796875 4.6796875 0  2.333079012424948 3.845757959077508 0  0.7829771267899832 3.317744656243421 0  1.159100632608513 3.532487125138763 0  0.799066251840424 3.893573750162776 0  1.57326499580282 4.255438189102632 0  0.7309366047093668 0.2991402264438908 0  0.3054777494262156 1.223275888123843 0  4.027475154280377 2.78211326942427 0  2.35270874745988 4.426658168476266 0  3.474236283732569 2.021154281686229 0  4.401414236174444 2.329446628171927 0  3.39403781747337 3.987097102903034 0  1.077524329801934 1.214100792470484 0  4.065611571711903 1.066085524514197 0  2.165399002716117 3.335637450367864 0  3.007639563081306 1.093684039371638 0  4.030818285732145 4.351883315180857 0  3.504115222530889 1.739284194222036 0  1.224503368215566 4.712091441401919 0  3.805634204685714 1.321528442399996 0  4.319233123479386 1.573547993867769 0  1.024007670021325 4.394604704797005 0  3.776400432023095 3.839003324979723 0  2.991819819453308 4.320567175146181 0  0.9782797534072181 2.886406017887129 0  1.763835134082104 0.6602345487826022 0  3.765182288741625 1.631193038541544 0  2.267959593989681 2.345053543725764 0  4.412434895833333 4.168294270833333 0  4.4072265625 4.7255859375 0  2.791493971314009 3.11210833271929 0  3.408766223032414 3.469500900677365 0  1.915147569444444 4.725484476461039 0  2.070301968506271 0.2605666686358055 0  2.767932250651506 1.530295992695836 0  3.280065043173439 1.364863281105779 0  4.45101570110842 2.974157152713635 0  3.521928862999512 2.96990445010402 0  2.552921961347576 4.008414007169315 0  0.2682955376854191 3.657555015841003 0  3.084522868361304 2.310593316718068 0  2.669255823227708 1.939379494498064 0  2.615884629473921 2.238841231570381 0  1.405652091971449 0.8877813821442277 0  3.25151486618811 3.68536115104276 0  1.963741569810629 2.331207252264507 0  4.017297980292599 2.486269171379106 0  3.869168920841219 4.748188103831625 0  3.596868753579134 4.77342723825056 0  2.41262958240343 2.764128584995838 0  1.266750578673391 1.404747710001619 0  1.559243962241121 2.85146506328516 0  3.128799423834764 2.052081657715259 0  0.6770833333333333 0.9778025793650794 0  0.2083333333333333 0.78125 0  1.978224492765132 3.087074731032578 0  4.051448850909273 1.969392119104174 0  1.320577095006813 4.172234780971559 0  3.214261103850064 2.534397293281829 0  0.2635729089754111 1.779234736680035 0  3.510775680035133 4.460728640112889 0  2.603081405968802 0.2432579385496493 0  2.866341315154884 0.6662105505481998 0  3.000919221100777 0.2270278495648781 0  1.298858304121393 2.05917319923859 0  2.020292299736597 1.589794568392338 0  0.7401688396476035 4.470780315741533 0  0.6721783535561408 4.733125588707921 0  3.753712482075402 2.874301339727514 0  3.557348205914658 2.491958694539413 0  1.094565978195436 0.2011034254079851 0  0.9338148378011396 0.6833568465908735 0  2.945530578578538 3.701798332963805 0  3.111707186654356 3.216904195825605 0  1.341791111822685 3.293123262233967 0  1.632939924064587 1.184895891095613 0  0.6335477978936732 3.517393619499591 0  0.5576014611130192 3.210998966942492 0  1.564344196470102 0.3630498725895039 0  2.75362450242839 4.626680495816594 0  3.571304405229554 1.192452351107437 0  3.522934592621944 0.9359134489437148 0  4.453125 3.671875 0  4.765625 3.828125 0  1.055906321410838 4.14310472322957 0  4.795146539102229 0.46875 0  4.767156345199235 0.7178596932040019 0  0.2048534608977711 4.53125 0  0.232843654800765 4.282140306795998 0  0.5393715189906129 4.270810883024032 0  4.329922600274667 0.2750645887059072 0  4.275515096738972 0.5448389557295173 0  4.477747423652795 0.7252838358993123 0  0.2002829820452772 0.46875 0  0.4352678571428572 0.6956845238095237 0  0.5007241582667088 0.2123388122114133 0  4.672890923830735 0.2500902110494848 0  0.4308009280819452 4.783624996516437 0  2.104871305393774 4.438653689007242 0  0.2274454167838428 0.2274454167838428 0  3.446466574593436 0.4359605369011901 0  2.12354112127588 1.217588426759619 0  2.309175236825235 0.7888355970690434 0  2.556178570281936 1.054299163237582 0  0.578683248637
[...]
<PointData  Scalars="f_16-2"> 
<DataArray  type="Float64"  Name="f_16-2"  format="ascii">-3.2146737703502573e-53  4.8142587223082848e-04  -1.7359187246515033e-50  1.2329512803004322e-75  8.3833307077406601e-27  7.2652210807900127e-59  1.1004917159730061e-59  -2.5246718743816994e-27  2.8510917823818445e-37  5.0347606260587411e-13  1.7839655268873131e-15  -3.0997709338370181e-58  -4.2518208402155909e-41  1.9849181698864271e-55  2.0940068684075071e-38  2.5135598274645278e-67  1.0238996083795590e-66  -3.2580904092175538e-42  5.4475611404248590e-42  -4.0950950492481035e-25  2.7320429772203367e-51  2.8897316190648573e-28  -2.1823065220887964e-49  -1.8653123783035818e-14  -3.2199790130011488e-62  4.5569928422986460e-34  -2.1871092563989168e-32  -8.5616232555784787e-51  -4.1336094837461479e-53  -3.0005835745662505e-46  -4.3854959891516856e-48  1.1271783554985849e-42  1.1414909403873154e-19  7.6303801415065977e-58  -1.4125632534126154e-33  3.7494621679404698e-35  -5.9804193096797049e-40  8.6301036965309824e-31  5.7376799221208311e-45  8.1909171438303370e-59  -4.5641140298108354e-25  1.3058984910012474e-52  2.9427804946807334e-09  2.5565863045855167e-06  2.6485133989007596e-72  -2.6676444880471035e-70  -1.4717757092147839e-26  3.4986688159710601e-23  2.5278205919806928e-53  -5.7540833487688046e-32  2.0365675871817422e-22  7.7654842185426043e-57  -1.3789229179387347e-44  -2.3913011726196944e-59  -2.7822468842248941e-19  -4.8943757977797705e-34  -3.3968475683337854e-57  -3.5818110564903565e-52  8.2331148961044600e-47  1.6513007031479784e-62  3.3289548710162021e-62  -2.1824248118516530e-19  -8.2532164463621008e-45  3.5459650930347798e-56  1.4209045894533731e-41  -2.8549688698054977e-41  -1.3328490846790575e-34  -1.6560082303354786e-48  -2.5818853949414431e-51  2.5431542660492182e-48  1.4378170818190582e-38  -7.3551127339264490e-39  -1.1401329033006909e-39  1.1074886804924303e-10  1.4504713905436973e-14  3.4821112720547528e-21  1.0555201944736338e-65  2.4829744378258509e-67  5.4503929696870023e-62  7.3877458991414807e-32  3.9501301182746712e-09  -7.6589854581015862e-30  -5.0081256567219908e-49  -2.5712511515769410e-40  6.1487884482055506e-44  -2.7916422707816030e-49  -1.9650566099043343e-48  -5.9170904822893911e-48  -3.9549050466175607e-46  -1.2061449622624403e-51  -7.3996013978074037e-44  8.2825802957214452e-54  1.1840405298289587e-57  9.7009426219445324e-56  -4.0986575379075841e-56  5.3874644619614689e-40  5.0325579097502788e-31  8.7682090903221408e-59  1.1555915956773544e-50  -6.7764481446731710e-54  2.9562312465935193e-48  1.8854009865504529e-52  -2.2754665634871613e-45  1.0820742011511766e-42  -1.8735083314712097e-39  -3.0165901072261354e-16  -5.2542175222127813e-17  -8.8038762724599597e-24  5.1730283271453542e-55  4.6575188769265861e-65  -1.7600641106565402e-37  -7.0459106679905413e-23  7.7857228510887935e-21  6.3799848658590794e-32  2.2389596650681444e-26  1.0684702116122412e-30  -8.2216576767398923e-34  -3.3721829855760206e-50  -1.2273870648249539e-57  4.2784179029525306e-45  3.1290048368782723e-30  1.9508912456106726e-53  4.3743026296607748e-67  1.7756018627710322e-34  -7.5972840307633489e-35  2.5788099292816880e-74  -3.6021891918657700e-20  1.1625701552020174e-61  4.6178927692139295e-58  -4.6667955337147962e-35  -2.5202299572355509e-22  2.1147553386370269e-49  1.1313061638609370e-36  -2.8217185687082449e-36  7.0785578840635566e-39  -8.3528836186711430e-45  -2.4739261981862376e-46  2.9473273163918187e-15  -2.6897274239173895e-41  6.6116798132549268e-27  4.5746593000073765e-22  1.3275943065300397e-28  3.7474888936336796e-25  7.6293553259583249e-27  1.4553396977785876e-63  1.9191438486513755e-59  1.3356128350676763e-73  -1.8076319048015618e-62  4.8444549377519456e-44  7.5609192744909799e-51  1.8494714577499547e-36  1.6192929014257158e-11  1.2464822480816537e-18  -8.9832631834926435e-66  -2.9609710180708772e-30  -9.2041232737927134e-38  1.3569918925385606e-49  9.5518664224466996e-42  -1.5202478826446485e-35  -2.3857444000819392e-46  1.4828268678789402e-67  5.4899176820551008e-52  2.4137994223173075e-56  1.0600496901274002e-46  3.0748593965158549e-52  1.0716695981175087e-53  -2.5292568482602577e-50  -9.1154050679578193e-27  4.2164676906433263e-23  5.0948003197194264e-30  4.9730723300588851e-16  1.3008880662418520e-16  -9.0124187884135354e-53  4.9577786990866245e-06  8.9962234065302953e-04  -1.3617779381503084e-60  4.0526801735754575e-23  6.0846535234707331e-25  -8.0986003877186278e-27  -2.4368851413930908e-31  7.2678462246507479e-49  -1.8531127303449787e-42  -8.0190256030612484e-57  -1.7939023166539846e-56  -6.2743940986975224e-58  -4.3125561567578658e-57  -5.8488923632106397e-61  9.4370372280126539e-60  6.8680250977375082e-58  -2.2859979492099451e-59  4.1878321693704089e-41  -9.1179693257213713e-53  -3.5053973771077513e-29  1.7923868928314827e-11  -2.8878564364466495e-09  -8.3933238331256381e-31  -4.8763097736532122e-37  -1.4924729078871257e-43  1.2369083347749873e-64  -8.0195297804642545e-70  -7.8175679219712567e-55  9.6678936044193451e-35  -3.9389357607289476e-71  -1.5094516925178089e-46  -7.5154143506149694e-38  -2.7965399476858262e-41  -1.2939450702181230e-44  9.4655787839904867e-50  -4.6980773674681998e-11  3.2245537648762897e-12  2.3046151308858034e-52  3.2055057554878745e-54  9.7632553223659847e-43  8.2528911594515606e-52  -5.4009605478436370e-54  -4.8340866029665843e-18  -8.8877495724605955e-47  7.9594523141431717e-41  -3.7575767087478390e-35  -2.7852721857235309e-63  8.1505432256316793e-44  2.7503541051576215e-54  -1.1667986224638780e-46  6.8379828165021877e-53  5.5470124912344964e-50  -1.8140950875153413e-57  -3.1013075794337597e-55  -3.8406253757764678e-33  3.9734962917130168e-22  -6.3153857584353282e-46  -1.3576443349346619e-34  -4.1781458622461177e-65  2.1052363395736622e-68  -4.8094900423013905e-44  1.3381314060213192e-51  -1.4811225935781616e-54  2.2690700843695011e-24  -1.3283239791127048e-34  3.7036757996819143e-40  -9.1499576835202542e-57  -1.5853897121008291e-48  8.6003473141197507e-50  -5.6821285677916664e-42  6.2590033455185365e-41  9.9094573455597638e-37  -1.7306835134967523e-37  -1.6147905050160097e-19  -3.3309595113555428e-50  5.4604865100176419e-31  -6.9933327950122303e-49  -9.3232620242659708e-65  8.7331828925056792e-64  2.0703342663589858e-38  5.8649264944113318e-20  2.2312094935005116e-35  9.0327478696673070e-40  3.9475421032827468e-13  1.6714422649464619e-08  1.5412502758610264e-37  3.5815635402582919e-51  -7.5560383078111174e-49  3.1033757216824333e-43  9.3155098264380723e-19  -3.8651265280307092e-61  7.0580774954297985e-30  -3.1308470354560654e-33  4.4930955897078010e-33  1.6811707896321132e-26  1.8469608462196487e-27  1.2522493674864673e-50  -1.9703681424878289e-54  -1.3249913049194594e-49  -7.2955898477865651e-46  -1.0476636590729768e-13  -1.4845446410949658e-14  -2.2539202786158968e-49  1.8229610106893554e-46  -8.0826266634123161e-39  -7.8216677629633367e-22  -3.4427492409351876e-42  -2.2834270102977803e-36  1.0158322479138447e-19  5.7257166817821443e-57  -8.8271434315829491e-43  -9.9437451816397914e-42  2.2825532669377585e-62  -8.0707301212900294e-67  1.3729656721133007e-49  -7.6605191855511110e-51  1.2519871257797524e-50  -5.5691296073733720e-49  6.9014828995460054e-47  -1.8220882880343851e-48  -7.5845122362902805e-45  -2.1531469606380101e-45  -1.1634473694776559e-46  4.1267475556594141e-05  2.6631584122043802e-08  -1.1309295598254720e-07  1.5854351534539439e-47  8.4692783540691159e-54  -9.1864253176546933e-54  4.8030516395742326e-04  -3.1134180623254619e-38  8.1127403165643574e-28  2.5954427047654836e-27  -6.1390988876996433e-32  6.7737679272801192e-47  -2.2802708307037638e-46  9.3416124804158537e-30  2.9441385543523341e-43  2.3039262460709468e-40  9.4297780810940745e-53  7.2069735184724402e-57  2.6035284739538233e-70  2.7633827773975886e-18  -4.2417797794455791e-45  -1.9315079265861826e-44  -8.4038709347856045e-39  1.1286731715079223e-57  2.8652613192097676e-44  1.6048333159114678e-42  1.4999087328289940e-21  -2.0318044015952465e-39  6.6160800969803318e-43  1.9296675667983050e-50  -4.2608643698731202e-21  3.3124571279183941e-55  2.1784930800218177e-51  -1.2130756263848631e-24  1.3935490768940748e-57  2.2019467948795102e-15  -8.7798062748046269e-31  -6.1845339299636629e-58  -1.0306241774975604e-59  -1.6585876265007894e-44  -3.1471043839793080e-58  6.3590861730672491e-33  -5.3146209904893514e-31  1.1897876672201167e-60  5.3682348653697651e-55  -1.4529447908844019e-28  -1.3297709274226909e-35  -8.2128860133041732e-42  4.2712141096998296e-60  1.1766950050700733e-37  -9.9068197825445711e-62  2.5314501782291141e-55  1.6940367598607119e-39  7.4720196522986654e-56  1.9100126243802317e-33  2.0573572776782568e-17  3.1855948514169591e-15  -4.9162289329660469e-13  3.7830924694597665e-39  9.5130608105092180e-37  -3.5752530642713344e-25  -1.9510608800184816e-58  2.6815087182349566e-58  -1.1561957559191750e-58  7.1615979007650037e-52  2.1779431886948245e-73  -3.8394222281218805e-53  5.1636873598177530e-54  -2.2144932707581541e-34  -3.5205739922805415e-69  2.3978965063012592e-37  -7.8328249583711756e-57  -1.2481926809474642e-47  4.4994566155343805e-45  4.3794092714650614e-41  2.2471908652776743e-33  1.3151112247864106e-12  1.3875213363903320e-65  3.2985028145981043e-46  3.3517023882125080e-33  -2.9699469405070571e-32  -1.3304958647314778e-59  9.2725640735459837e-25  2.0223890294095806e-24  -4.7996230838229316e-24  -2.9856976123390673e-28  -5.7326942088516166e-47  3.0620684572377301e-33  3.0330779217945210e-43  1.3707931052691023e-39  3.0174524407956372e-47  1.9655880262485575e-50  1.8496963333634468e-55  6.6287544271254201e-39  -8.7319366835814204e-29  5.3603738433688354e-18  -1.8514137323249170e-51  -5.0305942477411938e-19  1.8755298438983991e-27  -1.8491606861889254e-62  -1.8619465503743213e-42  -1.7414014149314153e-37  6.7882387668334271e-61  1.1481566205347843e-34  4.4830343639078778e-11  1.4517385302056126e-21  -5.6588074777511240e-49  9.0418044328176970e-53  -3.2377077907604482e-41  1.1253519417738744e-50  3.3651532614506419e-60  -6.6089834288110740e-36  3.2798855234488752e-22  1.7856977298658293e-48  -8.2801622580347428e-31  -6.6057699434987232e-33  -3.6363257106690004e-31  -3.1793620910660354e-49  -1.8388802562937665e-39  3.0239143386885119e-35  1.3324809155569860e-47  -6.2986663696097692e-18  -5.0782866868417465e-27  1.1310398430194879e-57  1.8740392841675136e-36  2.4783402302781874e-50  -1.3919120460348366e-55  -4.1397917576064090e-58  -1.9582417706695370e-32  -9.6004467832773801e-28  -9.0334261622856763e-44  9.2316456586440722e-51  -4.8308270981987389e-56  -1.2651955426897577e-58  3.6235382504941746e-18  1.0683899533722190e-39  1.4156728595715899e-55  5.4456886707073002e-53  4.2123972105065941e-43  -1.3134071201805281e-28  -2.0434167170877827e-47  -1.0829418734974172e-30  -4.8288883235117143e-54  3.3629139563848787e-18  -3.7324793936420000e-52  -1.7297442514942237e-39  -7.6900131603311699e-33  -8.4119937431906854e-42  1.5696434913831729e-71  -9.3880540485725615e-27  2.3506332356400696e-49  3.4985775758155022e-37  -4.7043629035640851e-22  -9.8726704665883928e-46  -2.7185633905323390e-42  2.9600864883992722e-23  -9.4904201593065443e-56  -4.9346220899839308e-67  1.0520585786775511e-54  1.3060264942566522e-58  -1.8883490369364181e-27  2.1161965356821779e-19  -3.5708492833157294e-37  7.3474601706544891e-18  1.4096053907249830e-49  -4.7970017883653290e-37  -9.9087536486074597e-28  -7.8768294582262693e-44  1.1964427382710337e-42  3.9465160089193068e-32  -1.2787954151819116e-52  1.7265816209768122e-22  5.0212983283857037e-36  -1.5701471373917618e-15  4.3213568824742739e-41  8.8088578481221889e-21  -2.1292707647611231e-24  1.6010011308689600e-26  -3.1526100663607471e-31  -3.0569746452401102e-30  1.0287707129386632e-45  7.8035623619230236e-48  1.1250368960288788e-43  -4.2153399892425805e-14  -4.0019508326603039e-57  -8.3342110435171239e-64  1.5337957428350700e-66  7.2940239794126446e-53  -9.1014417099592001e-29  -2.9299059916222585e-64  -2.9271927222741940e-22  2.1083223548042932e-24  9.0020062345844696e-30  -1.0172730421172361e-51  2.4765233961662390e-36  1.8859146909548780e-33  4.2121072674542451e-57  -2.3699143322808190e-39  -3.6281975030263950e-59  2.9389464595744286e-58  5.5714692567453743e-48  -5.2947172511776906e-59  -1.7539377552653581e-43  5.9488211607235989e-64  7.6461814960043482e-47  7.8388787776957672e-41  -5.8456854762147532e-36  5.0000547201720358e-10  4.6245869649548416e-53  9.5071629744169821e-52  2.6572540639935101e-56  3.6684858066189875e-23  4.2404960861234833e-43  -3.6949706026882143e-42  1.8360508578259675e-44  7.7459399808248960e-67  7.0295370761152722e-24  1.4699948093687012e-51  -4.5416872303500102e-26  1.4746642287966468e-24  3.8897473286533005e-48  -6.6221487577190503e-39  -3.4016256410500596e-46  -3.1467598911683232e-57  3.2718359132893009e-55  2.9725676552752456e-25  5.3705137173925580e-20  1.4922015563158748e-38  -7.5867736887110188e-56  6.2171693957370438e-51  4.8354864918505603e-43  -8.2390921409450293e-44  3.3589776833731907e-45  -2.8502050663458749e-53  -4.0571436097941081e-44  -3.4353756910987389e-60  1.8615640905393555e-49  -1.0504652509935587e-28  2.9838422171709146e-56  -5.8381330192379021e-52  7.0599515157499262e-49  2.2285893466137327e-48  7.5608481227552990e-66  -4.3823682388180134e-64  8.2507240397519315e-63  1.5920861844347878e-50  -1.5513456109421438e-51  -8.1925791074364421e-48  6.3131890775097968e-25  4.0144658785005775e-25  2.8144638268880834e-41  -1.0967220093168039e-60  -7.6996963578286748e-64  -2.9568492166785932e-45  -2.7283334412438385e-69  -4.7264391351988321e-68  -1.3893056922681613e-34  6.3721111329846256e-38  -7.9583520649168684e-49  1.4002150440397133e-48  5.5275609647872961e-42  -4.5962772440704136e-26  8.6480329235362699e-55  9.3018758700156289e-54  1.7320427182085519e-47  -1.4197430359502277e-09  -1.5182410335123140e-11  -1.1689124678793517e-12  -5.9710778964567267e-45  -4.2195857306587741e-49  1.1973195849411851e-49  -6.0091536450289789e-18  -1.4863528536698939e-55  3.1964375213454326e-51  -5.6436797004556566e-35  3.7700833400059026e-40  8.0223175260007320e-53  -9.8038221183726843e-73  -2.5016531765073254e-44  6.1244905218909765e-64  5.2241029248413651e-69  5.6522038555396342e-17  -9.4178305150915373e-34  2.5712881263494426e-44  -4.4643873035992117e-55  -3.0491948124598711e-58  -3.2618147408896694e-41  2.0060939130755259e-52  -3.6041792961541258e-16  8.8669944494169593e-40  -1.9182173048406033e-68  6.9515750769061176e-38  -3.2517002830251294e-21  -2.1374708442173645e-32  -6.3806402998424352e-52  -9.5223793297962203e-30  2.3085635629681018e-35  -1.0535646833299598e-26  -6.8733691207860134e-56  -3.7220978299086210e-46  -8.4081808234708210e-10  -4.7295362194630882e-30  -2.2206429339971098e-18  2.1726325520392535e-15  9.5572200297779805e-19  1.5283483100621199e-14  2.5801561714702563e-14  -2.8224586189123941e-57  2.0906001294836931e-59  -5.2876635447206292e-40  3.5509153181856223e-37  3.7781186201496980e-37  -5.4133547572309859e-32  3.5818736591183597e-07  -1.3158242980714860e-52  -4.8471361275484290e-55  -2.8734982961739359e-24  -9.1368743730787892e-63  -3.3686924074525369e-50  6.3850946374100763e-66  2.7319852885256096e-49  1.1167502497469769e-65  5.3699479636919847e-29  -2.4576891718548996e-58  2.2564298094498733e-37  2.8126654229616322e-56  -2.1269403401182535e-55  8.1290804711741933e-05  8.3916803109986685e-02  -3.5624641015373060e-61  -5.9324222325604395e-28  1.1799185204102432e-70  1.1287327828615209e-05  -3.7888973929371332e-46  8.0746575866545389e-51  -2.9848644823660831e-21  2.9013606336272312e-23  1.5421894418861495e-42  -2.3448381210638646e-55  1.0987133932410589e-38  5.6440790887284804e-26  1.0752543404168229e-67  -1.8721898836639752e-10  -4.3531004378556846e-45  2.1779558796374690e-44  -2.7744058978021115e-23  -2.7517834387453834e-53  1.9571692228304920e-14  7.3969902925055485e-39  -3.4537282084773147e-50  -6.7075580239095381e-47  5.3793982416236436e-45  6.8853713502315063e-61  2.0955138479251321e-37  2.6210266784487489e-46  2.1884592003637095e-32  1.6662823902756066e-47  -6.6033179811273704e-52  -4.4293953649334847e-57  7.8837292881941627e-58  6.0781895129832643e-47  5.2984841477974740e-28  -1.8704900992077145e-60  -3.7448710223256677e-60  5.7196252786650705e-26  -2.8091352799350062e-72  -1.4396807835431385e-56  3.3338935462804242e-69  1.2399156733327100e-51  -3.4374434994895000e-54  -9.5644278168891628e-60  3.8400524917901648e-37  -2.2919373204764727e-57  2.8390909987193683e-64  -2.4113945785904556e-36  1.0428327464173402e-33  1.7220618111652964e-59  -8.8594433296785885e-59  2.1796239290129742e-62  -4.7066297271446821e-22  9.9001335214170964e-24  9.2289433302909344e-29  -6.1364845454500978e-61  -2.2799340962032641e-15  7.7373875594195213e-20  -2.5376108309899855e-39  1.1131649993409121e-41  4.7129008526413644e-55  -5.6085510708177446e-08  -6.5103147271740077e-49  5.6225587353749166e-53  -2.8940749000630560e-13  3.4057559721381006e-31  1.5357436367347276e-04  -9.0697988623959864e-08  2.7866287735699957e-66  -1.6883987479366394e-73  -2.9169416541626146e-76  -3.2557422015422806e-74  -3.0556849273772834e-32  6.1938334366983373e-61  -6.4931848833449927e-11  -3.1733441518750944e-66  -1.7820651312949480e-71  -5.9269755909237028e-53  5.6120949564270594e-45  8.5101567359952643e-54  -1.7253091343040545e-39  3.4010651485215597e-56  -3.1203150193048386e-36  -1.0073632111869967e-57  1.2003514323978296e-18  -5.1195302882718756e-18  -3.6329060317432256e-16  5.3673674599076465e-61  -2.9778773103669240e-12  1.1859366922360897e-26  -4.3006967402891457e-13  1.0502635558585170e-47  -2.0062518440869358e-31  3.9267006356209192e-28  2.5650881622308586e-49  3.9760434208195393e-33  -1.8966705236216511e-34  3.2128293868910009e-37  2.5568253137426621e-29  1.8757396456244866e-14  4.0369690350442601e-12  1.6833693045537112e-54  5.4673412279960772e-51  -6.9124991451061693e-47  3.8693242207104328e-52  9.0673358381648802e-21  1.6324140933040390e-59  -4.0594976328064364e-35  8.8111694132057190e-49  -1.8156612478223566e-33  4.0291544833052114e-22  -6.2949982151760345e-42  -8.0849741919634630e-46  3.9866169979301599e-34  4.3386312716122475e-28  1.3250775594971172e-29  -2.1626205692333229e-43  4.0786643379393699e-56  3.9052797877584882e-22  2.9524583719255657e-52  6.5529948424480236e-53  6.1809427307242711e-36  5.5523225484002705e-42  5.4622542294529996e-23  3.2679528730150720e-46  -7.7993594090318665e-19  1.6336126972973707e-59  3.5094272216018169e-39  3.7916920955062387e-40  4.3410029526493552e-57  -2.0875624153252123e-50  -2.6781026216520947e-50  8.0847320343986608e-54  1.0325222579537591e-52  1.5230756653106519e-49  4.7685169069229975e-32  1.8786983671563991e-49  -4.0726877646972994e-41  9.6206535879084035e-34  -4.0347674261497290e-43  -2.4434795863624364e-44  7.6670754611233177e-60  -2.1099217079734482e-39  1.3893270610957348e-43  1.1861895285708566e-43  -7.2399361465731868e-48  1.1455375612910739e-48  -5.5175124390750134e-36  9.5811379787627202e-39  -5.2899953985021006e-40  -1.2869940699959106e-32  2.3852753000148461e-46  7.7637185521027616e-55  9.4313898124416726e-57  5.7286548059628722e-51  -2.1112888920283584e-48  1.9699669812275557e-51  -2.5243184503222882e-59  4.9056469024341079e-45  3.1718836922474521e-33  -7.5168008050425057e-58  2.1727642501965099e-58  -8.6150011172065575e-54  -3.8129063432829606e-41  4.0835880205029759e-34  -4.5163556159513084e-26  3.3433989326019672e-44  4.0955406052081393e-44  -1.5744375913435849e-25  2.0864884168960305e-30  -3.4997165727873553e-62  2.4869704156322812e-20  -1.1114485320157839e-40  9.1351926043579106e-63  -6.7255646769040852e-62  -2.8556089561558918e-68  -5.7326773057444775e-50  -2.1793339371867979e-56  5.3748064232965254e-33  -4.8992193259138414e-45  -8.1541687589897667e-41  1.2369217869844853e-29  -3.5781020217816227e-53  1.9728021762570864e-55  4.3442396509363443e-43  7.5920260667282110e-48  2.2645468958139885e-29  3.3634220597686879e-41  -8.5925486001511092e-33  -9.5641430666290832e-31  4.6172250960004760e-53