<?xml version="1.0"?>
<VTKFile type="UnstructuredGrid"  version="0.1"  >
<UnstructuredGrid>
<Piece  NumberOfPoints="6486" NumberOfCells="12696">
<Points>
<DataArray  type="Float64"  NumberOfComponents="3"  format="ascii">0 5 0  0 0 0  5 0 0  5 5 0  2.5 0 0  5 2.5 0  2.5 5 0  0 2.5 0  2.5 2.5 0  0 1.25 0  1.25 0 0  1.25 5 0  0 3.75 0  5 1.25 0  3.75 0 0  5 3.75 0  3.75 5 0  3.541666666666667 1.458333333333333 0  1.458333333333333 3.541666666666667 0  1.875 1.25 0  3.75 3.125 0  1.284722222222222 2.326388888888889 0  2.683189655172414 3.767959770114943 0  0.9375 0.9375 0  4.0625 4.0625 0  0.7252209595959597 3.026357323232324 0  2.763480392156863 0.9129901960784315 0  1.875 4.345238095238095 0  4.345238095238095 1.875 0  4.192708333333333 0.8072916666666664 0  0.8072916666666665 4.192708333333334 0  3.368055555555555 2.326388888888889 0  0.6837606837606839 1.738782051282051 0  3.285485245626782 4.324328415208927 0  2.551239698778062 1.693130150610969 0  1.827256944444444 2.868923611111111 0  3.464875022477093 0.6813924607921316 0  1.942880513719175 2.059558626187995 0  3.04563492063492 2.971230158730159 0  4.375 3.4375 0  2.13639445139758 0.5994472256987903 0  4.272228422619047 2.606956845238095 0  0.625 0 0  0 0.625 0  5 4.375 0  4.375 5 0  0.6400043240752655 2.384646170113389 0  1.347691225855598 1.660875475110776 0  3.515783617857982 3.723905460714006 0  3.125 0 0  1.875 0 0  0.625 5 0  4.375 0 0  5 1.875 0  0 1.875 0  0 3.125 0  1.875 5 0  5 0.625 0  0 4.375 0  3.125 5 0  5 3.125 0  1.489644181965304 0.6007147273217681 0  2.054597701149425 3.742302955665024 0  2.662520990197781 4.39452575763237 0  2.415835363784578 3.165530021913244 0  0.8679986894865213 3.602373689486522 0  1.267459753787878 2.886186079545454 0  4.099702380952381 1.365327380952381 0  1.316964285714286 4.438244047619047 0  3.7915135293491 1.959691594758709 0  2.875141124191255 2.118761176511833 0  3.00418010501169 1.397414179299248 0  0.4081721322167092 3.410647930198662 0  0.4166666666666666 0.9375 0  1.014190407998288 0.4422301359994293 0  1.383260571305984 1.162718286082048 0  4.53125 3.90625 0  4.453125 4.453125 0  3.772848162504192 4.48678272083473 0  2.8125 0.404329517041716 0  0.4538690476190476 0.4538690476190476 0  2.305461739347387 1.04517007574828 0  3.771263799175824 2.624190260297553 0  3.229617768018734 1.809956994202883 0  3.780190884441317 1.025307111692601 0  4.646337365591398 0.9375 0  4.537623451379149 0.4609485750426037 0  1.200477888421151 3.934852888421152 0  0.3536626344086022 4.0625 0  0.4623765486208503 4.539051424957397 0  4.0625 0.353662634408602 0  4.560525106689535 1.390989100915847 0  3.958439078571988 3.619844539285994 0  4.672619047619047 2.1875 0  2.1875 4.672619047619047 0  1.862808494877602 3.325947624431087 0  0.3268135998175443 2.8125 0  4.674181280189791 2.8125 0  2.283233994935276 4.138623547175983 0  0.9375 4.677879119362977 0  3.08488061581743 3.469889594488945 0  3.113427375573758 3.913955730709506 0  1.652847799068813 3.950848935641292 0  2.932652662909449 2.550542739521724 0  3.311350648514189 1.088831994878698 0  0.6770833333333333 1.295851139601139 0  0 1.5625 0  1.047214787840024 1.96818092308125 0  4.183331482095785 3.03958703580843 0  3.4375 5 0  1.071307777252521 3.246275861010018 0  0 2.1875 0  0.386576856303419 2.03125 0  1.713862716483534 2.439783116849799 0  1.775396256975935 1.665976816304977 0  2.231236976948428 1.443917394671254 0  2.373900732409897 2.086930260150635 0  4.114918237574474 2.221646174618671 0  3.661302567757379 4.099620139144836 0  3.378215938602977 2.734494874063393 0  0.9842097536079312 2.597286741306247 0  1.642795138888889 4.672619047619047 0  4.0625 5 0  2.099458800960004 2.567446522665629 0  2.616202751603346 1.297895893940078 0  5 4.6875 0  0.9937554350075428 1.512592975947215 0  2.8125 5 0  3.002695327068194 4.614055254615477 0  3.205627424097207 0.3852436382721472 0  1.678616581261621 0.927556612265266 0  3.365326698305438 3.196943731162083 0  1.554834936170314 3.120009882655813 0  3.108408340729323 0.7797187795784133 0  3.684368918102174 0.3728877601163941 0  2.716214835303553 3.39276351922003 0  2.37718583984784 3.551973401560441 0  0.3750662445374837 1.52191994866787 0  2.679073487930202 2.844160731602957 0  1.557635869750078 1.991068682985722 0  1.812595698561088 0.3839273018252746 0  2.512014721281916 0.6320641118792227 0  2.1875 0 0  2.349973454443689 0.3189980586887866 0  4.6875 3.59375 0  4.636052949022233 3.178355898044465 0  4.6875 5 0  3.345485909784306 4.665765449101383 0  0.536727472389443 3.749603193819277 0  4.349541499640203 1.116201826262156 0  2.886559045931982 1.774013674579691 0  0.6770833333333334 0.7142857142857143 0  1.5625 0 0  4.120842096538671 4.628726497527622 0  2.176157474177018 1.793470423744689 0  2.175650736889416 2.909863021769539 0  4.036616464259081 1.709699085170981 0  3.887974623473683 0.6492597046022868 0  3.4375 0 0  3.70675699592552 2.289666624772415 0  4.697265625 4.208984375 0  2.815177577303495 4.085937578239174 0  4.672619047619047 1.730733296184288 0  4.6875 0 0  5 0.3125 0  0.3125 5 0  0 4.6875 0  0.3276089296588581 2.484526834811734 0  0.712433309515852 2.065138854645612 0  0.6376435912223634 2.711473454001295 0  1.184991292170422 0.7222504400947201 0  1.31884329779317 0.3206944232264773 0  3.683609198994263 3.44428698533042 0  0.3125 0 0  0 0.3125 0  4.231797269642997 3.789141808928991 0  1.564375596050781 1.425998687184973 0  2.007640894175573 0.9032106925568466 0  0.955125897558294 2.276666098587227 0  1.43898735721003 2.611310720271951 0  1.954491523717513 4.040700257877075 0  1.752947649777421 3.652439445419346 0  2.509575750247638 4.678021307664052 0  4.687194709705067 2.499965519538002 0  1.5625 5 0  0.9375 5 0  5 2.8125 0  2.1875 5 0  5 1.5625 0  5 2.1875 0  4.0625 0 0  5 0.9375 0  2.8125 0 0  0.9375 0 0  0 0.9375 0  0 2.8125 0  0 3.4375 0  0 4.0625 0  5 3.4375 0  5 4.0625 0  4.010848109290813 3.306446973933037 0  0.3077461147713075 3.119700563473354 0  4.6796875 4.6796875 0  2.333079012424948 3.845757959077508 0  0.7829771267899832 3.317744656243421 0  1.159100632608513 3.532487125138763 0  0.799066251840424 3.893573750162776 0  1.57326499580282 4.255438189102632 0  0.7309366047093668 0.2991402264438908 0  0.3054777494262156 1.223275888123843 0  4.027475154280377 2.78211326942427 0  2.35270874745988 4.426658168476266 0  3.474236283732569 2.021154281686229 0  4.401414236174444 2.329446628171927 0  3.39403781747337 3.987097102903034 0  1.077524329801934 1.214100792470484 0  4.065611571711903 1.066085524514197 0  2.165399002716117 3.335637450367864 0  3.007639563081306 1.093684039371638 0  4.030818285732145 4.351883315180857 0  3.504115222530889 1.739284194222036 0  1.224503368215566 4.712091441401919 0  3.805634204685714 1.321528442399996 0  4.319233123479386 1.573547993867769 0  1.024007670021325 4.394604704797005 0  3.776400432023095 3.839003324979723 0  2.991819819453308 4.320567175146181 0  0.9782797534072181 2.886406017887129 0  1.763835134082104 0.6602345487826022 0  3.765182288741625 1.631193038541544 0  2.267959593989681 2.345053543725764 0  4.412434895833333 4.168294270833333 0  4.4072265625 4.7255859375 0  2.791493971314009 3.11210833271929 0  3.408766223032414 3.469500900677365 0  1.915147569444444 4.725484476461039 0  2.070301968506271 0.2605666686358055 0  2.767932250651506 1.530295992695836 0  3.280065043173439 1.364863281105779 0  4.45101570110842 2.974157152713635 0  3.521928862999512 2.96990445010402 0  2.552921961347576 4.008414007169315 0  0.2682955376854191 3.657555015841003 0  3.084522868361304 2.310593316718068 0  2.669255823227708 1.939379494498064 0  2.615884629473921 2.238841231570381 0  1.405652091971449 0.8877813821442277 0  3.25151486618811 3.68536115104276 0  1.963741569810629 2.331207252264507 0  4.017297980292599 2.486269171379106 0  3.869168920841219 4.748188103831625 0  3.596868753579134 4.77342723825056 0  2.41262958240343 2.764128584995838 0  1.266750578673391 1.404747710001619 0  1.559243962241121 2.85146506328516 0  3.128799423834764 2.052081657715259 0  0.6770833333333333 0.9778025793650794 0  0.2083333333333333 0.78125 0  1.978224492765132 3.087074731032578 0  4.051448850909273 1.969392119104174 0  1.320577095006813 4.172234780971559 0  3.214261103850064 2.534397293281829 0  0.2635729089754111 1.779234736680035 0  3.510775680035133 4.460728640112889 0  2.603081405968802 0.2432579385496493 0  2.866341315154884 0.6662105505481998 0  3.000919221100777 0.2270278495648781 0  1.298858304121393 2.05917319923859 0  2.020292299736597 1.589794568392338 0  0.7401688396476035 4.470780315741533 0  0.6721783535561408 4.733125588707921 0  3.753712482075402 2.874301339727514 0  3.557348205914658 2.491958694539413 0  1.094565978195436 0.2011034254079851 0  0.9338148378011396 0.6833568465908735 0  2.945530578578538 3.701798332963805 0  3.111707186654356 3.216904195825605 0  1.341791111822685 3.293123262233967 0  1.632939924064587 1.184895891095613 0  0.6335477978936732 3.517393619499591 0  0.5576014611130192 3.210998966942492 0  1.564344196470102 0.3630498725895039 0  2.75362450242839 4.626680495816594 0  3.571304405229554 1.192452351107437 0  3.522934592621944 0.9359134489437148 0  4.453125 3.671875 0  4.765625 3.828125 0  1.055906321410838 4.14310472322957 0  4.795146539102229 0.46875 0  4.767156345199235 0.7178596932040019 0  0.2048534608977711 4.53125 0  0.232843654800765 4.282140306795998 0  0.5393715189906129 4.270810883024032 0  4.329922600274667 0.2750645887059072 0  4.275515096738972 0.5448389557295173 0  4.477747423652795 0.7252838358993123 0  0.2002829820452772 0.46875 0  0.4352678571428572 0.6956845238095237 0  0.5007241582667088 0.2123388122114133 0  4.672890923830735 0.2500902110494848 0  0.4308009280819452 4.783624996516437 0  2.104871305393774 4.438653689007242 0  0.2274454167838428 0.2274454167838428 0  3.446466574593436 0.4359605369011901 0  2.12354112127588 1.217588426759619 0  2.309175236825235 0.7888355970690434 0  2.556178570281936 1.054299163237582 0  0.578683248637
[...]
<PointData  Scalars="f_16-2"> 
<DataArray  type="Float64"  Name="f_16-2"  format="ascii">-3.2130608696054567e-43  6.3623792568020942e+06  5.3395374329020794e-43  4.8346387976202432e-65  1.1147952089162116e-16  -5.1156979373587198e-48  2.9193085972024235e-50  -4.0661975068067633e-17  -2.7178935506854466e-28  7.1200095038439076e-03  2.5883981332604132e-05  -2.1205823435065847e-47  -5.3186132349316973e-31  -2.5724439009549694e-46  -5.0320618963367850e-28  -1.1154310737273412e-56  -2.8255397365940180e-58  -6.0085691995431374e-32  -1.3183490813779073e-31  -7.0226417372968495e-15  3.5855936750028003e-41  2.7023031950684472e-18  1.7784814663156454e-40  -2.7063873190419607e-04  4.2456756863252795e-53  8.7002021694018540e-24  -3.2499305977619328e-22  1.0934423169866214e-40  -4.6380735678043525e-43  8.1180220633968496e-37  -7.5251239611230403e-38  1.9735035381216947e-32  2.0402829184972673e-09  -1.5300613504421532e-48  -1.8107717525024490e-24  1.9186875128884948e-25  7.6183707894356839e-30  2.2571951890815479e-19  2.6207304720371347e-35  -4.4726509409985247e-48  -6.9586990749444526e-15  -2.0297856353499905e-42  4.1747726491170830e+01  3.5129077929680585e+04  1.1472107849915265e-61  1.0232957923872763e-59  -2.7686741627590257e-16  6.6885647492182964e-13  -5.6860257897862513e-44  -7.7264549424528355e-22  2.9721730095077706e-12  -2.0891696721522138e-46  5.4346842711939039e-35  4.2876685327031040e-49  -3.9100769073113589e-09  -7.7141940877466009e-24  -8.3046758898704064e-48  2.3906379281415560e-42  8.2059657820930504e-37  2.7234274495472913e-53  5.9022069910775797e-51  -3.3151261441062644e-09  -2.5164222051091776e-36  4.7585419943386336e-45  -6.9570797649554641e-32  -3.3051148211786417e-31  -4.3050859699847148e-24  -2.7441291837773400e-38  9.3963247511095956e-42  1.2648352162950629e-38  4.3169129832667833e-29  6.7596965905306654e-28  -1.7522598374469519e-29  1.5110879941530595e+00  2.2038175943857888e-04  -4.1560878717765897e-11  2.6708963736740023e-55  2.4360569661423225e-57  1.4209265054055534e-52  1.1148777896101539e-21  6.0990371639312777e+01  -1.2504424966309243e-19  -1.7570462037698386e-38  -3.1774408182335936e-31  8.6807892201863979e-34  9.4805633339588974e-40  1.1098795101205511e-39  2.8489158300759006e-38  -5.0761594370202933e-36  -6.8618924040435165e-41  -1.5798525617037846e-33  1.9436418763730059e-43  -1.3347963202365455e-46  1.4707987522164569e-46  3.4961258611369127e-46  -6.5591045596343871e-31  7.4927131805361957e-21  -1.3494564586862715e-46  1.0859235952877963e-41  -1.4568436467203913e-43  -7.4829726359171821e-39  -7.0816894865521113e-43  1.2467329396720520e-35  -2.9024799927144742e-32  -3.3568943866038345e-29  -4.4048928708787286e-06  -7.3701619088192283e-07  -7.4283377166480402e-14  9.8755646620817503e-45  -9.2727277296878678e-56  -3.5600972424794431e-27  -1.0436838822126454e-12  1.1909135630948785e-10  1.0629787388390062e-21  5.8572535051628136e-16  -4.4295921741171565e-21  -1.3502551039493467e-23  2.0502169206920004e-40  -1.3052533713744760e-47  4.8470163672569028e-35  5.3283808205530048e-20  9.4468549874717472e-44  -7.8822023659207219e-57  1.3555171852576015e-24  5.6518785103077680e-24  -1.0655663060984670e-64  -6.9536669912653856e-10  -4.5754849178780124e-52  -1.0225844467804877e-48  -5.7804698109496306e-25  -4.3129279181321976e-12  -2.7803585945149622e-39  -5.2099279923158960e-27  -4.2061109831426439e-26  -6.3040214024300725e-29  2.2041322204797549e-35  -5.7234305253701316e-36  4.4467362513047351e-05  -2.2928031363295744e-32  7.7847484570569016e-17  6.8882543588233687e-12  2.0344754175232052e-18  5.2256910175233125e-15  1.1935865578096308e-16  -4.0062205614071237e-53  -2.2227843343300664e-48  1.6491379547669323e-63  1.0987796447529893e-53  -1.1236920204870019e-33  -3.5233633811540364e-41  -2.2220519941799152e-26  2.2883035622769390e-01  1.8960777551251671e-08  -1.7254543418338500e-56  5.1046904101027838e-19  -1.5567545323451029e-27  8.5538793106442458e-39  -3.9014431546404889e-32  -2.3007749559156112e-25  -6.3517131163574239e-35  -2.7935299099323381e-57  -1.0543855238923422e-42  -4.0491992170979940e-46  -7.8415664826067326e-38  2.0245704154495574e-42  7.9237941683430657e-44  -2.4228257653107988e-40  -1.4102549384012173e-16  6.5357100734673172e-13  9.6413003805802497e-20  7.2446147032860766e-06  1.9737068901525498e-06  -1.0175201140466481e-42  6.9539756175894028e+04  1.2526426630612621e+07  1.4409865251496751e-50  7.3725326544961962e-13  9.2937139298647082e-15  -1.2801658812506994e-16  -1.6072612824163325e-21  4.8198912311661905e-39  6.3578607906353261e-33  -4.7964707756653691e-48  8.1070975793395278e-46  2.7493555431052512e-47  9.7282347492790246e-47  2.4517462468388878e-49  -7.2249377204245577e-50  -2.7920172620403823e-48  -3.0528345532135853e-49  7.6205376896235670e-32  3.8503185406455796e-43  -4.7816016966117305e-19  2.5995172875549882e-01  -4.0620802475567295e+01  -1.3150971540049209e-20  -5.9096293036137681e-27  -1.6465289172039575e-33  -4.3036908657990657e-54  -2.7937162132238095e-58  -2.5950964885336048e-44  1.4762910648244000e-24  -9.5548065134118466e-61  -1.2536917739174172e-37  -1.6250545755364007e-27  -7.9844264240283321e-31  -1.4805494384763562e-34  -2.7762830177559611e-40  -7.0231496905457991e-01  4.7542632798262499e-02  -1.3690226778852345e-41  4.5431296961479777e-45  -2.9562926755584805e-33  -6.6356451245273841e-43  1.9011622659558438e-44  -7.7305759498472792e-08  3.4516625964628862e-37  -7.0736548678142308e-33  -5.5142467779717166e-25  2.2794686933149751e-53  -3.1897132421401192e-33  3.4510599714566784e-44  -6.0927886030325363e-37  -2.3371274292553154e-41  1.5452851040596274e-39  3.5548871773535164e-47  5.7096023451326967e-46  -8.0470044467893282e-23  6.0748618666238335e-12  -2.0076938626823400e-36  7.0573827798663676e-25  1.1899932692284572e-54  1.2457871807571252e-59  3.0643109820501312e-34  -1.4755364882924776e-42  -1.4596798134591747e-45  3.2294190289020192e-14  2.2847273153366794e-24  8.1213981456303541e-30  3.0747278942578384e-46  -2.4384470495285163e-38  2.7193062976114729e-40  -9.2364780106983492e-32  9.2268954154809991e-31  1.1511999051222724e-25  4.2948322363097193e-27  -2.8746973595852924e-09  6.2458808051542603e-41  6.4388971412874196e-21  -7.8253067244723444e-40  -1.1416477025028498e-54  1.5405073886362547e-54  -2.6022771679253210e-28  9.9455046490175819e-10  5.8232791051846226e-26  2.1265236534606469e-30  7.0048482837171263e-03  2.3826341865080695e+02  5.3018781506623118e-30  7.9387464038188313e-40  -4.6126362104386152e-38  1.9817821981547934e-33  1.3939113104793152e-08  4.4101884064409589e-52  1.0291727116021370e-19  -4.4597747373397178e-23  5.4232603461958230e-23  1.5896273294927682e-16  6.8389385162631626e-17  5.5240834640092273e-40  -3.5096086379985324e-43  2.6653231058852895e-39  -3.6269552632532089e-35  -1.5621237159952415e-03  -2.1098111514298893e-04  1.2362769441309848e-39  -3.2049716889440121e-37  7.6081903243837878e-29  -1.2176397635038543e-11  -3.3995887131293399e-31  -3.5738423347990526e-26  1.4975659922458724e-09  2.2345156702183699e-47  -1.5887371908686834e-32  -5.5582664568456562e-33  -1.5775659564939425e-51  -2.1108179876930374e-55  -2.0447426376115418e-39  4.4112350803277832e-40  -6.3980684994850220e-41  -5.1770070513065286e-39  7.8883229303253902e-37  -1.2340237087045334e-38  -1.8467940663492310e-35  4.1646094240500479e-36  4.3000133076508343e-37  5.8209113082924043e+05  3.7656938618012418e+02  -1.6563616823781599e+03  -2.9800704281750906e-38  1.7003913558514057e-43  5.1739978129607058e-44  6.5905551973320451e+06  2.5957382472192765e-29  1.2709364582462075e-17  4.0167621126832569e-17  -9.6942830828597041e-22  1.2804302531154751e-36  -1.7304119163772831e-36  9.0690688376051411e-20  3.7984309904866758e-33  2.1071843112314239e-30  -2.6164222473722102e-43  -3.5323426497804178e-47  5.4013638592140721e-60  4.4550224133807168e-08  -1.6676904425096917e-34  6.1554681683221826e-34  1.3581354145933387e-28  -8.8762683724613647e-48  3.1677606867960649e-34  -6.1768700815351736e-33  1.3044953869403626e-11  1.6134316923196140e-29  -7.9319921989660608e-35  -1.8619291977211945e-40  -6.4700394336871413e-11  -8.4634597675538063e-45  2.8835776550304288e-42  -1.8170669343778110e-14  -2.5964485929771233e-47  3.2567838838991407e-05  -1.5053420812224837e-20  5.2171650628903771e-48  -7.8517213111727178e-49  1.1472608918882169e-34  -4.5439710418776884e-50  1.4090280232679221e-22  -1.3603945304644755e-20  8.1158379339268225e-49  -1.0589130897372191e-44  -1.9428739257397847e-18  -2.4849943200495388e-25  5.6987101104455722e-32  2.4335370261604966e-50  -2.7685526332830897e-27  -3.2469159360718462e-50  -1.2270178231151209e-45  3.9856111000674728e-29  2.4438444545556886e-45  1.8739403036630972e-23  1.8958062349276969e-07  4.8739631024784314e-05  -7.3283381863617865e-03  5.7545526008409489e-29  1.7623596154630271e-26  -5.6059712005179452e-15  1.4330620834519931e-47  1.4136840505702362e-48  -2.2997232491093099e-49  6.7407174827800579e-42  -9.1072501771707082e-63  -1.7379724629585634e-42  -3.0106575322821029e-43  -4.1211437454211136e-24  6.9674162160690264e-59  2.7430531787678953e-26  1.3250961273800427e-47  1.7788418611258128e-38  -1.7461311354405572e-35  -2.6536884643905145e-32  6.5255468936167996e-23  2.0512868137145372e-02  -1.4870837726201741e-54  -1.5051756567816486e-36  -1.9914450093278139e-22  3.8612736119393132e-22  9.3939523566417999e-51  3.9490488853538404e-15  3.3591841014694133e-14  -1.0903831478328691e-13  -1.1391757509175209e-17  4.9160463500823473e-37  1.8727552754089259e-23  4.7526276248212476e-35  1.8541196736575482e-30  1.3826170216352338e-38  -9.2103604267213000e-41  2.0276544765076361e-45  -6.4398307198846179e-29  -1.3460051645952696e-18  8.6009270786244674e-08  6.7040670256666729e-42  -7.6514595902806653e-09  3.8409213692316159e-17  9.5316821339965579e-53  6.5055187380633203e-33  -5.7117303423221662e-28  3.0488973108094367e-50  1.4030971106764655e-24  6.3970912612945030e-01  2.1082340480972937e-11  1.8118761131815559e-39  -3.7957789889287957e-42  2.2694914434141673e-31  -9.1906691673231958e-41  -5.2004167779074280e-51  -9.1337556930715483e-26  5.1668775053343735e-12  -7.2533299590770864e-40  -1.1980483457132456e-20  -1.5852544622766603e-22  -2.0219921490155914e-21  2.1227837844078617e-39  -4.6122938274626821e-29  6.8265930984234843e-25  9.5577025795847387e-37  -9.1625881542775504e-08  5.2948959939431129e-17  9.6906854727798006e-47  -1.0127890107945381e-27  -4.8981053381226403e-41  5.1072810297619221e-46  8.1457025551409905e-49  -3.0421501768434165e-22  -1.5360370395624704e-17  -3.2343205194244417e-33  8.3043432156113011e-41  -1.5827990175153093e-46  8.7159685386388318e-50  5.7196645143287100e-08  -1.3648312881810177e-28  7.3351910009548737e-46  6.4379334593984313e-43  -2.1435398892550545e-33  -2.0093400071039185e-18  1.2444394126728908e-36  -1.2897607126014978e-20  4.4347213975371463e-45  5.1464618211109074e-08  5.9346976259536626e-43  -3.2842337844053156e-29  -8.4316347591037834e-21  9.1130792910200151e-33  7.7218783368212349e-62  8.9993357344390218e-17  3.6342748208428571e-40  6.4879628760845240e-27  -7.1686330652550770e-12  1.2023289376138313e-36  5.8963310666898711e-33  4.6051369535593757e-13  2.4968876462204210e-46  1.2876142734959361e-57  1.2887558688983867e-45  -8.7233269867498411e-49  -5.1379597071749115e-17  4.5824330589046365e-10  -2.5256060687676921e-27  1.0601076640875053e-07  -8.2240556470365883e-39  -9.3120836860030274e-27  -1.6102340519659625e-17  -1.1776928928228939e-33  2.7646644744005841e-34  9.9649040575873920e-22  5.0880847131844485e-44  2.5166184055570891e-12  7.2666787797415989e-26  -2.8197126530097250e-05  -6.8805688576369480e-31  1.4252432146147649e-10  -3.0888704646879859e-14  2.4315646000684474e-16  -4.7985942045588870e-21  -4.6656382256653890e-20  -1.9197825938948051e-36  -1.0021427565960463e-38  -5.1204242337608508e-34  -6.5536395333071380e-04  4.2469781140107821e-46  2.7090912281170974e-53  -8.6850550768620918e-57  9.2434368701592728e-43  -1.3989211024490438e-18  1.7419418406634546e-54  -8.7455529873333160e-12  3.2131321285863811e-14  8.5438448661497116e-20  -8.6935510385562236e-41  2.0186179544650557e-25  2.7798701984068126e-23  5.9699275578136113e-47  2.6704202577117346e-29  3.4994431074205422e-49  -1.3689892475464578e-46  -2.1640703185231504e-37  -2.1045492412940780e-49  -3.3843412265673005e-33  1.7306633959627389e-54  1.2559769440437956e-36  1.0977842171913664e-30  1.0910791871445256e-25  7.1089873726287705e+00  -6.9509534471210711e-44  -1.9523186620177189e-42  2.3466099534065217e-47  5.9334955610219835e-13  -6.2058574110560643e-34  -1.3421497733115400e-31  3.5217947257372447e-34  -2.6679773589451340e-57  1.0764688015696827e-13  -2.0435008530846702e-42  -7.9654311672311563e-16  2.3837030254666733e-14  -2.2896656003217119e-38  -7.6986096766738599e-29  -3.4427196328893502e-36  -1.2359444258458960e-46  1.6607225232504134e-44  4.3625779363085076e-15  8.1696475532778606e-10  4.7021345465222120e-29  1.1109133909499580e-44  8.5705844595125042e-41  -1.7216441224932086e-33  -2.7707149148428339e-33  -2.1651177000393474e-36  -5.3383286459047228e-43  -4.9976441386612992e-34  8.0094455345384607e-50  -2.2668089674066943e-39  -1.5675671852971144e-18  -8.1195803040095127e-47  -1.8597083606533308e-42  6.5515901170513104e-39  4.4062098052200165e-38  3.9653513495972888e-55  1.2283857287269170e-53  2.6610412028930913e-53  1.5735167907928326e-42  -9.9977035796409536e-43  1.4697367148934935e-37  1.0592819651242249e-14  6.2823777381636120e-15  -1.9964155649794388e-31  -1.2477119833785556e-51  1.0138621443424990e-54  3.5415373064693495e-34  9.9455884284729293e-59  -2.5610190686656770e-57  2.7309012989096442e-24  5.8140145900764602e-27  1.4476287435003533e-39  1.4232558292998860e-38  2.9388258312222622e-32  -4.3800130163707651e-15  8.5591523483687345e-45  -1.5556062325501903e-44  -1.0347558505092621e-37  -1.9818178313189001e+01  -2.4360547265835555e-01  -1.6800570403328181e-02  -2.5735293339298805e-36  2.9624010381052650e-40  1.4078974720879654e-39  -8.4644779375744987e-08  6.7036727670127463e-46  3.8354952852004547e-41  -6.4460979734758579e-24  8.8918498631376205e-30  -1.7524857192854628e-43  -4.0227876771002528e-62  6.1812485203614069e-35  -3.0779719047426189e-53  -1.7649482493258550e-58  8.4218940161394658e-07  -1.8027975623315916e-23  -1.1583603494656019e-34  -1.6886096348068260e-44  3.0003983713230245e-48  1.3523368843575887e-31  -5.6695268555574770e-43  -5.2543613288084645e-06  -3.0161421247198983e-29  1.2476983854456655e-57  -3.3106109799063732e-30  -5.0276699957784289e-11  -2.4065558750510681e-22  8.9343503492171026e-42  -1.9589034965706176e-19  -2.1547708766798350e-25  -1.6183589224050133e-16  4.7402107404137359e-45  -4.2645317235906079e-36  -1.2118427506665347e+01  -7.7010177921634304e-20  -3.2546651246043912e-08  3.2484141818998625e-05  1.4334332516418095e-08  2.2082039963762168e-04  3.8597921059180864e-04  -3.7472525461968144e-47  4.1686229241336594e-49  7.0347216727247458e-30  -1.3563127578126207e-27  4.6935982627213225e-27  -1.1480771895465520e-21  5.0844188998864456e+03  6.7416772307141350e-44  8.7050796213868013e-45  -4.2998553281806373e-14  -3.1158296732123848e-52  9.6920605803008892e-41  -6.7232395054233623e-56  -5.1768561305502130e-40  -3.3053197888406700e-54  1.5489584335383640e-18  -8.5066390380533788e-49  -2.9042944771499589e-27  1.2299327200348433e-46  -3.0353014311930406e-46  1.1220403026946131e+06  1.1384240121340728e+09  1.4766712413421832e-50  -8.0230837756751483e-18  8.0406596637271322e-60  1.5688049310998150e+05  -3.9982066624986298e-36  -2.9000890505403016e-41  -4.7989484336573277e-11  1.1021243741220426e-13  2.4581343335805878e-33  -3.7826530599360502e-44  -2.4879191043394221e-29  8.7318277184766135e-16  -6.1287967214944817e-57  -2.7173878545309451e+00  5.2238886453697781e-36  -8.7427008959882310e-35  -4.2458211225363836e-13  -2.3588817614517987e-42  2.6916579123363794e-04  1.5659946876430343e-28  7.8258709605608073e-41  1.4345751046391561e-37  -1.4270304477358298e-35  1.3008921689776430e-51  -3.5953691900983210e-26  1.1728569815025909e-36  1.7602034629158685e-22  -2.7145049255720846e-38  9.9243500998222628e-42  -8.6729257010412447e-46  -2.5133181532814051e-47  6.0185620939910101e-37  1.0198262930540499e-17  2.3689602034478652e-50  -9.8312282908942257e-49  7.6520839193875520e-16  1.2917671775616786e-61  -4.8456035137673637e-47  -1.5674558458132916e-58  1.3140040513061436e-41  -5.9589487983471187e-44  -5.3193704534669259e-50  7.5649956976243204e-27  -7.4863554792060613e-47  1.2846031679034170e-52  -8.0219240923897718e-26  1.5060294882398323e-23  -4.4259751793542350e-50  8.0719597180720672e-48  -4.2889707526504471e-51  -6.8014150152524595e-12  1.4971676763345147e-13  1.4503613911980881e-18  -7.0183271378159205e-51  -3.1691495481526859e-05  1.1780928024682584e-09  3.4832616278120018e-29  1.3074969185526402e-31  5.8217921664446314e-45  -7.9891939509458632e+02  -6.4600025012309281e-39  -5.3798182557574265e-42  -4.2362848016384430e-03  4.4225092994174700e-21  2.1586392034267304e+06  -1.2651727645914857e+03  1.6398591824869075e-57  5.7018625832806477e-62  1.3794161762366784e-65  3.1120856041870790e-64  -4.7869561433058590e-22  6.8752614133956614e-52  -9.1244241528781667e-01  2.2495370437819981e-55  -6.3153434355253600e-60  2.2467519219722041e-43  1.8445109410992115e-34  1.7943919669506760e-44  4.1756359069740895e-32  1.5797648495913231e-46  -7.6122375830694618e-26  -2.8560830730056148e-48  1.8312726569972264e-08  -9.5820846474115885e-08  -5.4897915746084980e-06  -7.5361095344620678e-51  -4.2488552031072074e-02  3.8397153156446597e-16  -6.0389678908308302e-03  1.1814001935942417e-37  -9.6018303629191514e-22  6.2052951382772215e-18  -2.3735798147090362e-40  6.0284619811886681e-23  -3.2657109895178237e-24  6.3100358994312135e-27  3.9506285366940844e-19  2.8305937912476381e-04  5.7797638277844482e-02  -4.2652868242310232e-44  -1.0862063675019770e-40  5.4483031028634348e-37  -5.7182096761702388e-42  1.5954740706926295e-10  -6.1317437667078354e-49  -8.3371979850197904e-25  -1.3960045802760882e-40  -3.8590247509162149e-23  6.9749388199112050e-12  1.9769598071115900e-32  3.3826264576220038e-36  5.8674680352748635e-24  6.0946897868755376e-18  1.6440676859338631e-19  -1.9161708228545084e-33  -5.0209030847135448e-46  3.7330574424524353e-12  6.7313004976892967e-42  2.0904331036998937e-42  5.2341755333986511e-26  8.3346803992224463e-32  8.9455390160668918e-13  1.4777140095778416e-36  -1.1060253402537490e-08  2.0533496019737414e-48  1.5098293522533347e-28  6.8075442184435040e-30  -3.4249324648104572e-47  -8.9309930369978512e-41  -2.6699360282228845e-40  9.6956457291178905e-43  7.7122666918513612e-41  1.6547967474666657e-40  1.3880607626694362e-21  1.8120483514636917e-40  -1.0262296638008906e-30  -5.7247225821518497e-23  -4.6673414104147255e-33  -5.0095305672977450e-34  -1.3048633817360088e-49  -1.2040326908638323e-28  4.1785028344517790e-34  1.7692310029252696e-33  -1.5623031287635248e-37  1.7098810969713563e-39  -1.0728692361715617e-25  -3.4252940780858143e-28  -6.0390970452481389e-30  -1.9965071044593925e-21  -1.0638787186919096e-36  2.3710983041421344e-45  3.9471478028266552e-47  1.6193572956182359e-40  -5.0839954658857342e-38  5.9431218529714611e-41  4.4988508770500389e-50  2.6720938945865000e-35  5.0163032276118164e-23  3.6270315171218392e-47  -1.3313190463830198e-47  5.7909839112547541e-43  -5.8807144744600162e-33  1.5837441425214576e-24  -6.9016791386790080e-16  3.7968724824991823e-34  -3.4471179471708255e-32  3.5294864755165796e-15  3.1732019975154485e-20  6.7831834160903065e-53  1.9544342600583597e-10  7.2007208120601781e-31  3.8056424607770074e-52  -3.1002509966941460e-52  4.9617252744527395e-58  -1.1814994421952251e-39  -6.0783908108861488e-45  1.1213835256005518e-22  3.7042882717443088e-35  1.5356849740181316e-30  2.0397887278673355e-19  1.1775404512831580e-43  -1.5722172291552366e-47  1.6360511720997515e-32  -2.6388229296098288e-38  3.4807202834296121e-19  -1.3190714093112970e-31  -1.5634430551292688e-22  -1.6456543788732438e-20  8.327589725