<?xml version="1.0"?>
<VTKFile type="UnstructuredGrid"  version="0.1"  >
<UnstructuredGrid>
<Piece  NumberOfPoints="6486" NumberOfCells="12696">
<Points>
<DataArray  type="Float64"  NumberOfComponents="3"  format="ascii">0 5 0  0 0 0  5 0 0  5 5 0  2.5 0 0  5 2.5 0  2.5 5 0  0 2.5 0  2.5 2.5 0  0 1.25 0  1.25 0 0  1.25 5 0  0 3.75 0  5 1.25 0  3.75 0 0  5 3.75 0  3.75 5 0  3.541666666666667 1.458333333333333 0  1.458333333333333 3.541666666666667 0  1.875 1.25 0  3.75 3.125 0  1.284722222222222 2.326388888888889 0  2.683189655172414 3.767959770114943 0  0.9375 0.9375 0  4.0625 4.0625 0  0.7252209595959597 3.026357323232324 0  2.763480392156863 0.9129901960784315 0  1.875 4.345238095238095 0  4.345238095238095 1.875 0  4.192708333333333 0.8072916666666664 0  0.8072916666666665 4.192708333333334 0  3.368055555555555 2.326388888888889 0  0.6837606837606839 1.738782051282051 0  3.285485245626782 4.324328415208927 0  2.551239698778062 1.693130150610969 0  1.827256944444444 2.868923611111111 0  3.464875022477093 0.6813924607921316 0  1.942880513719175 2.059558626187995 0  3.04563492063492 2.971230158730159 0  4.375 3.4375 0  2.13639445139758 0.5994472256987903 0  4.272228422619047 2.606956845238095 0  0.625 0 0  0 0.625 0  5 4.375 0  4.375 5 0  0.6400043240752655 2.384646170113389 0  1.347691225855598 1.660875475110776 0  3.515783617857982 3.723905460714006 0  3.125 0 0  1.875 0 0  0.625 5 0  4.375 0 0  5 1.875 0  0 1.875 0  0 3.125 0  1.875 5 0  5 0.625 0  0 4.375 0  3.125 5 0  5 3.125 0  1.489644181965304 0.6007147273217681 0  2.054597701149425 3.742302955665024 0  2.662520990197781 4.39452575763237 0  2.415835363784578 3.165530021913244 0  0.8679986894865213 3.602373689486522 0  1.267459753787878 2.886186079545454 0  4.099702380952381 1.365327380952381 0  1.316964285714286 4.438244047619047 0  3.7915135293491 1.959691594758709 0  2.875141124191255 2.118761176511833 0  3.00418010501169 1.397414179299248 0  0.4081721322167092 3.410647930198662 0  0.4166666666666666 0.9375 0  1.014190407998288 0.4422301359994293 0  1.383260571305984 1.162718286082048 0  4.53125 3.90625 0  4.453125 4.453125 0  3.772848162504192 4.48678272083473 0  2.8125 0.404329517041716 0  0.4538690476190476 0.4538690476190476 0  2.305461739347387 1.04517007574828 0  3.771263799175824 2.624190260297553 0  3.229617768018734 1.809956994202883 0  3.780190884441317 1.025307111692601 0  4.646337365591398 0.9375 0  4.537623451379149 0.4609485750426037 0  1.200477888421151 3.934852888421152 0  0.3536626344086022 4.0625 0  0.4623765486208503 4.539051424957397 0  4.0625 0.353662634408602 0  4.560525106689535 1.390989100915847 0  3.958439078571988 3.619844539285994 0  4.672619047619047 2.1875 0  2.1875 4.672619047619047 0  1.862808494877602 3.325947624431087 0  0.3268135998175443 2.8125 0  4.674181280189791 2.8125 0  2.283233994935276 4.138623547175983 0  0.9375 4.677879119362977 0  3.08488061581743 3.469889594488945 0  3.113427375573758 3.913955730709506 0  1.652847799068813 3.950848935641292 0  2.932652662909449 2.550542739521724 0  3.311350648514189 1.088831994878698 0  0.6770833333333333 1.295851139601139 0  0 1.5625 0  1.047214787840024 1.96818092308125 0  4.183331482095785 3.03958703580843 0  3.4375 5 0  1.071307777252521 3.246275861010018 0  0 2.1875 0  0.386576856303419 2.03125 0  1.713862716483534 2.439783116849799 0  1.775396256975935 1.665976816304977 0  2.231236976948428 1.443917394671254 0  2.373900732409897 2.086930260150635 0  4.114918237574474 2.221646174618671 0  3.661302567757379 4.099620139144836 0  3.378215938602977 2.734494874063393 0  0.9842097536079312 2.597286741306247 0  1.642795138888889 4.672619047619047 0  4.0625 5 0  2.099458800960004 2.567446522665629 0  2.616202751603346 1.297895893940078 0  5 4.6875 0  0.9937554350075428 1.512592975947215 0  2.8125 5 0  3.002695327068194 4.614055254615477 0  3.205627424097207 0.3852436382721472 0  1.678616581261621 0.927556612265266 0  3.365326698305438 3.196943731162083 0  1.554834936170314 3.120009882655813 0  3.108408340729323 0.7797187795784133 0  3.684368918102174 0.3728877601163941 0  2.716214835303553 3.39276351922003 0  2.37718583984784 3.551973401560441 0  0.3750662445374837 1.52191994866787 0  2.679073487930202 2.844160731602957 0  1.557635869750078 1.991068682985722 0  1.812595698561088 0.3839273018252746 0  2.512014721281916 0.6320641118792227 0  2.1875 0 0  2.349973454443689 0.3189980586887866 0  4.6875 3.59375 0  4.636052949022233 3.178355898044465 0  4.6875 5 0  3.345485909784306 4.665765449101383 0  0.536727472389443 3.749603193819277 0  4.349541499640203 1.116201826262156 0  2.886559045931982 1.774013674579691 0  0.6770833333333334 0.7142857142857143 0  1.5625 0 0  4.120842096538671 4.628726497527622 0  2.176157474177018 1.793470423744689 0  2.175650736889416 2.909863021769539 0  4.036616464259081 1.709699085170981 0  3.887974623473683 0.6492597046022868 0  3.4375 0 0  3.70675699592552 2.289666624772415 0  4.697265625 4.208984375 0  2.815177577303495 4.085937578239174 0  4.672619047619047 1.730733296184288 0  4.6875 0 0  5 0.3125 0  0.3125 5 0  0 4.6875 0  0.3276089296588581 2.484526834811734 0  0.712433309515852 2.065138854645612 0  0.6376435912223634 2.711473454001295 0  1.184991292170422 0.7222504400947201 0  1.31884329779317 0.3206944232264773 0  3.683609198994263 3.44428698533042 0  0.3125 0 0  0 0.3125 0  4.231797269642997 3.789141808928991 0  1.564375596050781 1.425998687184973 0  2.007640894175573 0.9032106925568466 0  0.955125897558294 2.276666098587227 0  1.43898735721003 2.611310720271951 0  1.954491523717513 4.040700257877075 0  1.752947649777421 3.652439445419346 0  2.509575750247638 4.678021307664052 0  4.687194709705067 2.499965519538002 0  1.5625 5 0  0.9375 5 0  5 2.8125 0  2.1875 5 0  5 1.5625 0  5 2.1875 0  4.0625 0 0  5 0.9375 0  2.8125 0 0  0.9375 0 0  0 0.9375 0  0 2.8125 0  0 3.4375 0  0 4.0625 0  5 3.4375 0  5 4.0625 0  4.010848109290813 3.306446973933037 0  0.3077461147713075 3.119700563473354 0  4.6796875 4.6796875 0  2.333079012424948 3.845757959077508 0  0.7829771267899832 3.317744656243421 0  1.159100632608513 3.532487125138763 0  0.799066251840424 3.893573750162776 0  1.57326499580282 4.255438189102632 0  0.7309366047093668 0.2991402264438908 0  0.3054777494262156 1.223275888123843 0  4.027475154280377 2.78211326942427 0  2.35270874745988 4.426658168476266 0  3.474236283732569 2.021154281686229 0  4.401414236174444 2.329446628171927 0  3.39403781747337 3.987097102903034 0  1.077524329801934 1.214100792470484 0  4.065611571711903 1.066085524514197 0  2.165399002716117 3.335637450367864 0  3.007639563081306 1.093684039371638 0  4.030818285732145 4.351883315180857 0  3.504115222530889 1.739284194222036 0  1.224503368215566 4.712091441401919 0  3.805634204685714 1.321528442399996 0  4.319233123479386 1.573547993867769 0  1.024007670021325 4.394604704797005 0  3.776400432023095 3.839003324979723 0  2.991819819453308 4.320567175146181 0  0.9782797534072181 2.886406017887129 0  1.763835134082104 0.6602345487826022 0  3.765182288741625 1.631193038541544 0  2.267959593989681 2.345053543725764 0  4.412434895833333 4.168294270833333 0  4.4072265625 4.7255859375 0  2.791493971314009 3.11210833271929 0  3.408766223032414 3.469500900677365 0  1.915147569444444 4.725484476461039 0  2.070301968506271 0.2605666686358055 0  2.767932250651506 1.530295992695836 0  3.280065043173439 1.364863281105779 0  4.45101570110842 2.974157152713635 0  3.521928862999512 2.96990445010402 0  2.552921961347576 4.008414007169315 0  0.2682955376854191 3.657555015841003 0  3.084522868361304 2.310593316718068 0  2.669255823227708 1.939379494498064 0  2.615884629473921 2.238841231570381 0  1.405652091971449 0.8877813821442277 0  3.25151486618811 3.68536115104276 0  1.963741569810629 2.331207252264507 0  4.017297980292599 2.486269171379106 0  3.869168920841219 4.748188103831625 0  3.596868753579134 4.77342723825056 0  2.41262958240343 2.764128584995838 0  1.266750578673391 1.404747710001619 0  1.559243962241121 2.85146506328516 0  3.128799423834764 2.052081657715259 0  0.6770833333333333 0.9778025793650794 0  0.2083333333333333 0.78125 0  1.978224492765132 3.087074731032578 0  4.051448850909273 1.969392119104174 0  1.320577095006813 4.172234780971559 0  3.214261103850064 2.534397293281829 0  0.2635729089754111 1.779234736680035 0  3.510775680035133 4.460728640112889 0  2.603081405968802 0.2432579385496493 0  2.866341315154884 0.6662105505481998 0  3.000919221100777 0.2270278495648781 0  1.298858304121393 2.05917319923859 0  2.020292299736597 1.589794568392338 0  0.7401688396476035 4.470780315741533 0  0.6721783535561408 4.733125588707921 0  3.753712482075402 2.874301339727514 0  3.557348205914658 2.491958694539413 0  1.094565978195436 0.2011034254079851 0  0.9338148378011396 0.6833568465908735 0  2.945530578578538 3.701798332963805 0  3.111707186654356 3.216904195825605 0  1.341791111822685 3.293123262233967 0  1.632939924064587 1.184895891095613 0  0.6335477978936732 3.517393619499591 0  0.5576014611130192 3.210998966942492 0  1.564344196470102 0.3630498725895039 0  2.75362450242839 4.626680495816594 0  3.571304405229554 1.192452351107437 0  3.522934592621944 0.9359134489437148 0  4.453125 3.671875 0  4.765625 3.828125 0  1.055906321410838 4.14310472322957 0  4.795146539102229 0.46875 0  4.767156345199235 0.7178596932040019 0  0.2048534608977711 4.53125 0  0.232843654800765 4.282140306795998 0  0.5393715189906129 4.270810883024032 0  4.329922600274667 0.2750645887059072 0  4.275515096738972 0.5448389557295173 0  4.477747423652795 0.7252838358993123 0  0.2002829820452772 0.46875 0  0.4352678571428572 0.6956845238095237 0  0.5007241582667088 0.2123388122114133 0  4.672890923830735 0.2500902110494848 0  0.4308009280819452 4.783624996516437 0  2.104871305393774 4.438653689007242 0  0.2274454167838428 0.2274454167838428 0  3.446466574593436 0.4359605369011901 0  2.12354112127588 1.217588426759619 0  2.309175236825235 0.7888355970690434 0  2.556178570281936 1.054299163237582 0  0.578683248637
[...]
<PointData  Scalars="f_16-2"> 
<DataArray  type="Float64"  Name="f_16-2"  format="ascii">-1.2121077822805970e-55  8.0428241662187819e-06  4.1061451265253277e-53  -8.2363676428824102e-78  1.1595072082124037e-28  -4.2500933549808994e-61  -1.1321435275330801e-61  -4.5455664885232283e-29  1.2693633458815169e-38  8.0869928792768973e-15  2.8311907978959407e-17  3.3864964008146486e-60  -8.9927578275130208e-43  -1.4515459552503533e-58  1.9176735307366766e-39  7.8483633764077457e-69  -1.2243256027785812e-68  -3.6493381943240471e-44  -3.9957107681520014e-43  -4.1832485921754880e-27  -1.7186111294722622e-53  1.3262072814190621e-29  3.6696957336862048e-51  -3.0033197190582896e-16  1.0068242618079768e-63  5.2607800861516455e-36  -3.7184099918581427e-34  6.0789804884152697e-52  -3.9398712733106963e-55  -4.1121271255654365e-48  -2.4013721335682390e-50  -1.3577452812921255e-44  2.0249166793788219e-21  1.4154982167645867e-59  -7.7232136160285604e-36  1.8342409070854599e-36  -4.7596453286550192e-41  -2.0883376563431723e-31  -5.1499462725015265e-46  2.2133769831392708e-62  -7.6325572365872444e-27  -1.0247922412635643e-54  4.7394958094354273e-11  4.2714775030626587e-08  -1.6646440698895093e-73  1.9514693389765109e-72  -1.3433495685703921e-28  9.5809537544056057e-25  -4.8946730984829347e-56  -3.6717781579411308e-34  3.2590607153800541e-24  1.5555532063187595e-59  -6.7184004218703956e-46  -9.7596105717140361e-62  -4.4432660892043918e-21  -7.6679941131915637e-36  -7.5700597286573284e-59  -1.2378071846500993e-53  1.2672299240049022e-48  -1.7396396869506846e-65  -4.6377215152051504e-65  -3.6301186103100690e-21  -1.1084778035971817e-46  -8.8829460712890983e-57  3.9877773005683288e-43  -4.0948817622040967e-43  1.2332503459201075e-35  -3.4032322306738696e-50  6.4252135364380378e-56  -1.3291022881166982e-50  -1.5787926940728856e-40  -1.2817692117702825e-40  -2.1021886031227944e-41  1.8186813212905522e-12  2.3136204209526579e-16  1.5789281033834955e-22  -3.5187866463536908e-68  -1.2125899693367951e-69  -7.8650082594010811e-64  1.2752287024951155e-33  5.6807681147132982e-11  -5.2167594591692062e-32  1.5515243114652135e-50  -3.3929679978019071e-43  6.4330703509597364e-46  -2.3840524520172253e-51  -1.9617590193879218e-50  1.8800048858939440e-49  -5.8201854658431768e-48  1.5687106782802752e-52  -4.6389209501116675e-46  2.8582943451072472e-55  4.0998947084470296e-59  -6.6414068164239783e-58  3.0233227149086119e-57  1.1999054852432517e-41  8.6554131992229199e-33  -4.9636175803001487e-60  -2.9202882782945128e-52  -1.3746495147824930e-56  -4.4177744309602288e-51  -3.3588477617436578e-54  1.1338243436868461e-46  8.8005647252875614e-45  2.1654313709521478e-41  -4.9110535454299876e-18  -8.4266431755512954e-19  -1.4564336327965382e-25  -7.8788068602792733e-57  1.4337064912623391e-67  -1.8836838795550972e-39  -1.1333180011521150e-24  1.2560800318861556e-22  -6.9265078631614973e-33  -1.5748675552357810e-28  4.9573932140159095e-33  8.8536294413984566e-36  3.0358610665348479e-52  -5.2825011790385172e-60  3.5100732016148141e-48  3.8597368155874969e-32  6.4237817641708294e-55  -2.4144210339403571e-69  -8.4632092070353167e-36  -4.2629164643182255e-36  1.4760939359572491e-76  -7.3660710096948118e-22  1.0350851020640402e-63  2.8905323570338569e-60  -3.6261977508875795e-37  -4.2448876727147034e-24  9.5496356149419181e-51  5.7799525323603870e-38  -3.6715450095711274e-38  3.6533583740581214e-40  -1.3496081099698417e-47  6.1685076140107081e-47  4.8199767811550857e-17  3.2947821070637871e-43  1.8465159018597102e-28  7.6189515451780830e-24  2.1305540175759863e-30  6.4433149964007048e-27  1.2844267784775650e-28  -2.5225083353784316e-65  -1.3605334316911650e-61  -9.6413865526038249e-76  1.3739831382026379e-63  2.4119880677964013e-45  2.3855018849954017e-52  7.7306791372765902e-38  2.5906351829537870e-13  2.0896494459647216e-20  9.4178888369109216e-68  -5.0745602392737529e-31  8.0072534765318994e-39  1.1764538191010468e-51  1.9459528795603505e-43  1.8640426762154133e-37  4.2222678177686615e-47  1.2260616793196424e-70  3.1842411704267212e-54  5.5211363408057401e-58  7.2658914202382420e-49  -2.8340112272514041e-53  1.2828015559097240e-55  -1.6235072429320110e-52  -1.4370663835703191e-28  7.0625041652007766e-25  5.6672454196694218e-32  7.9882927946361822e-18  2.1665868206005462e-18  1.3327756636618587e-55  8.1750536971572095e-08  1.4860990829316010e-05  -7.6770561611285993e-63  2.3551173222638174e-25  1.0055087458838473e-26  -1.2009976459643980e-28  -1.2965604651271054e-32  -2.4129354789282664e-51  -9.0205656490407338e-45  3.1880466161995207e-59  3.1652707235599259e-59  -1.4156657512902851e-58  -1.1648480147629216e-59  1.0834628530804522e-62  9.0381093567090722e-61  8.4376761616710866e-60  3.6709700348368172e-61  2.5421383986785414e-43  -7.0972385517378706e-55  -3.7311497080924702e-31  2.8391010248491675e-13  -4.6657776513109943e-11  -1.3839823284689911e-32  -9.9667754085126527e-39  -2.7548597987374450e-45  1.1989391437941483e-67  1.7271608872804428e-71  8.4166448008925845e-57  1.5914816964782160e-36  6.2698208762531704e-74  7.7972955395978493e-50  -7.3124483743307770e-40  -2.7702021742240324e-43  -2.0048911117870486e-46  -1.8275162233763079e-51  -7.4380806383861787e-13  5.2097182091747025e-14  -2.6224106233082831e-54  -1.1318034543479285e-55  -1.3400183662618179e-45  -8.4006811446462298e-54  3.7925940954908447e-56  -8.5237724331601708e-20  -2.1531314384828453e-48  8.9070973033429060e-43  -5.9158129592886127e-37  4.0340169590292752e-65  -5.1181130509859486e-45  7.3013708476810064e-58  -3.1518709441082131e-48  -4.3242343280403428e-54  -1.9974129608706696e-53  -1.8235595899666516e-58  -2.8981924298636497e-57  -2.9669233766056974e-35  6.5419661108106871e-24  4.3866470273430883e-48  -1.2227984836231652e-35  -8.5246486503115031e-67  -1.9224225257706520e-70  -1.2354537312708286e-45  5.9186061762823997e-53  -2.2766499249342918e-56  4.2761828088444655e-26  -2.4423324698331502e-36  1.7473829508152145e-42  9.3769635874468357e-60  1.1636646413404995e-50  -1.2955839820373029e-51  -4.9973630816846952e-44  5.5373527295371870e-43  3.4560879581075571e-37  1.5109251157243911e-38  -2.9828690155654315e-21  4.4958446208282677e-54  2.7833416958752381e-33  7.1582015232267350e-51  1.8270829562982634e-66  6.0820709227414637e-66  1.2812849018001688e-39  9.8564632451533629e-22  2.3434496689451669e-36  -6.1986524112496049e-42  6.2365213147342126e-15  2.6999029628990021e-10  5.3745736540004296e-39  -1.5114886813188453e-52  5.4747043658426311e-52  1.7655180661585815e-45  1.5130855073026550e-20  -7.7183895908778969e-63  -5.7278319324310546e-32  -5.5392362520686493e-35  9.7274778631579390e-35  6.2663359723343787e-28  -4.4971157615754336e-29  -9.0748656421402246e-53  6.9591488159510057e-56  9.9577481007445128e-52  1.4916035988440330e-47  -1.7051931520654016e-15  -2.3381383831740263e-16  3.3171313719180548e-51  6.6391022235913490e-49  -1.4911750240889372e-40  -1.1405457393520441e-23  3.9280052526921042e-43  -3.0480816635448678e-38  1.6580981120124725e-21  -1.6233543747810143e-58  -1.8028364304312691e-44  -2.7983649677593510e-43  9.5414263435990888e-65  5.4352156295781032e-68  2.1284068316038575e-51  -2.0190949238304436e-51  2.8214038781856450e-52  -7.5203301461880360e-51  1.6994219254531645e-48  -2.5232640674508503e-50  9.5518686325994522e-47  -1.6321671561221708e-47  -1.8079716239013923e-48  6.7484587551892420e-07  4.3383414651023095e-10  -1.7791713459655577e-09  3.6174067125397557e-49  -3.8032136101170856e-56  1.1734904064291212e-55  7.9682766349972773e-06  -1.2559637432494569e-39  9.2820576019176269e-30  4.1338439276669020e-29  -9.0506065008485176e-34  3.7211854202533486e-49  -1.8073730289928874e-48  3.1079527313753914e-32  6.0701772241437238e-45  -3.2192508636173700e-42  8.2932072857871022e-55  7.5875321815009144e-59  6.6374119768920929e-73  5.2413885278567680e-20  -6.3048761281804580e-46  -1.8351223186796000e-46  7.0595003058550976e-41  -1.3729378547493009e-59  2.8837843635566608e-46  2.8056636321812748e-44  2.0358585621252123e-23  -8.0815637944602252e-41  2.3451989511685758e-44  -2.5757127554309800e-52  -7.4203838186463930e-23  -3.3873296185556237e-57  -5.9328186759299427e-54  -2.0540022822357754e-26  -9.5939971872242482e-60  3.5658674271064415e-17  -5.5158879409459215e-33  -5.6971760234168276e-61  1.3939289294534863e-61  -5.3944657881860415e-46  -2.2633077425033056e-60  5.3171930710887556e-35  8.6581227961709740e-33  -1.0864225034728460e-62  -6.1421885244169434e-57  -3.2709476023264392e-30  2.6948863572900280e-37  -5.9628224539968988e-44  2.8576181858529713e-63  1.2339085841395325e-38  -3.2206397597277028e-64  -1.0211794946141413e-57  8.6685163380799536e-41  -1.8940108629168813e-57  5.5150491138758068e-36  2.4005326342017710e-19  5.3752019162563923e-17  -8.0056546946528564e-15  8.0161735743271734e-41  1.2805832787711359e-38  -5.6430706134663054e-27  6.5481207878345824e-61  -4.4966191999623160e-60  1.2356423092282291e-60  8.4143200945667068e-54  -1.6640704105496528e-75  1.4299926924030850e-54  -3.5056770741259369e-57  -1.8298777840965640e-36  -9.6505015293782601e-71  -6.2210371477553009e-38  -2.4784492196416717e-59  -1.4179844317531654e-49  -8.7779980970779260e-47  7.9968123983755599e-42  -3.4228432564341555e-35  2.0522672588723529e-14  -5.1076663890104052e-67  3.5656669578723095e-48  2.8893381893141459e-34  -7.7908046051318052e-35  -5.6782110624071879e-62  1.6127088138365018e-26  2.2955941347640128e-26  4.1415571286473733e-27  5.8201627611987076e-30  -1.1224288341194796e-48  1.4779974893830050e-34  5.0155975242575550e-45  6.9684905095938202e-42  1.1412258356915721e-49  -5.5438095786862515e-52  1.3744914797446217e-57  -4.6007206510838930e-40  -1.3672309748408821e-30  8.4636096907573681e-20  1.0148502200714514e-52  -8.2364157821460889e-21  -3.4088371669400960e-30  -1.1775670867871401e-64  -1.0990599016058752e-43  -2.5785558515119011e-39  4.7083751183631078e-63  -9.3242319331442160e-37  7.1580623684165188e-13  2.2768515854978039e-23  6.4359805617713292e-51  -1.7471764485564222e-54  -8.3375015718234330e-43  -6.4589358953178786e-53  1.5525808050293618e-62  -9.8506539425984113e-38  4.3588920016641413e-24  4.8936106549631122e-51  -1.1585230349060564e-32  -7.7118891303051055e-35  2.1646285550531030e-33  4.1373585594535941e-51  -2.3568654783517396e-42  2.4150703333751042e-37  -4.4657975007942420e-49  -1.0277794735782670e-19  -2.2969263335649690e-28  -2.0712923380699860e-59  -2.6588447673889778e-37  8.5226203497918498e-53  1.4785813568049914e-57  -4.5576798286407316e-60  -2.9462821065731736e-34  -1.3446492378523957e-29  -2.4980899939757133e-45  3.0032228552132658e-53  -9.7154825950041697e-60  4.1549297365152533e-61  6.1188233359569699e-20  6.5609332945757625e-40  9.1731666059378396e-57  1.5316315161681747e-54  9.8768306467645450e-45  -2.1042232364929043e-30  5.9771121576739477e-48  -2.0384291147209844e-32  -1.5283551420031301e-56  5.5975466039759092e-20  -3.0007236795848150e-55  -2.4268722286421267e-41  6.4658433798013458e-33  2.6138261411840119e-43  -1.5352302753337404e-73  -4.4045189133731688e-29  3.3831638951138954e-51  1.1691463767967148e-38  -7.8039360757932314e-24  -1.2865398898780161e-47  -5.4390529527407899e-44  4.6239789707880120e-25  -3.8751528526759457e-58  1.0618764673913168e-69  3.4836972058670771e-56  -4.2322883543409488e-60  3.2080535930300096e-29  3.9447757259423724e-22  1.0995978355548098e-38  1.1692976843311796e-19  -5.3306748770342277e-50  -4.8574489073719321e-39  -1.4048836525077227e-29  1.9104147695343913e-44  -2.2110533984559467e-45  1.6233632182278837e-34  -2.4917867692771621e-55  3.7736711069934348e-24  7.9837550806655723e-38  -2.9631857705509019e-17  2.7856702811863955e-42  1.4468025623957869e-22  -4.6492816265480489e-26  2.6571469815354910e-28  -5.0717707372649944e-33  -4.9919896837617252e-32  1.4151709171485527e-47  9.8165099506511650e-50  2.7242112415529135e-45  -3.0222530522716767e-16  -6.6231160797924117e-59  -2.3634420794577451e-66  -1.2136329270869112e-68  -1.0793009624173571e-55  -1.4633896590338064e-30  -5.1508597773321733e-66  2.2061162761644032e-24  3.4792087211285420e-26  3.9918260199958820e-31  2.8714416501386845e-52  -5.9155163895207547e-37  3.1221848605770555e-35  -4.5338708657547953e-59  2.8471469975127477e-41  -2.9718620840921538e-61  -2.2849993424938353e-60  4.7964190364493066e-50  2.1213055217446978e-61  -3.0173019174675481e-45  3.0585947944341207e-66  1.1529404796883879e-48  -6.1853303488932830e-43  2.2649581685744256e-39  8.0090748478217967e-12  6.8259089461457663e-55  2.0898540691010832e-53  -5.7889070746815493e-58  4.7372613101882252e-25  7.6043002740172104e-45  1.2437935243686059e-44  5.5009574041134648e-47  -9.8160927756335013e-69  1.1554293907058611e-25  1.1468171720888757e-53  -1.4238567667777450e-28  2.8712114173198618e-26  -3.0772592663538566e-50  -1.3210129694560952e-40  -4.3398363739172643e-48  5.1729047221151201e-60  -2.6655672157405058e-57  5.0982269295790378e-27  8.9187891099975184e-22  6.4749032148906064e-40  8.4379176968553318e-57  1.1315607873198319e-52  -7.0188677026267924e-45  1.9647152082754267e-45  -2.2943512174002395e-47  1.0998532036971751e-55  -8.9176329487968531e-46  1.6096284050788574e-62  -7.0540763853410888e-52  -2.3298630012808213e-30  3.2979466812844476e-58  4.2509966366851761e-54  4.2804075741419769e-51  -3.1347959038076892e-50  -4.8375588335425577e-67  3.0645963442178113e-66  -4.9070038157577879e-65  -4.4521034328370575e-53  4.0501909875391027e-54  -9.4997651443317838e-49  8.7125695250152082e-27  6.0086758543284992e-27  4.5557960062262080e-43  3.3377104238479069e-62  -1.0000733782652002e-65  -2.2007402189204014e-46  2.9793480085242091e-72  -6.7773715146320121e-70  -4.4626756136033189e-36  -6.3547231578404803e-39  -1.6720214351951577e-51  -6.7215802945234563e-51  1.1428038801030516e-43  1.7663605485536367e-26  -1.4758665826112280e-57  -1.1717783240565743e-55  8.6029741795808228e-49  -2.3347959364583183e-11  -2.0551994310490705e-13  -1.8769782889934012e-14  -3.4595777915387947e-47  -2.6973330479136005e-51  7.6324097123450628e-53  -9.6037242104593896e-20  -9.3870095192591745e-58  -4.6232806105814498e-54  6.9209471675848195e-36  3.0732874041270913e-42  7.6178041419523388e-55  3.5661675867274784e-75  7.0446533000373149e-47  -7.5930939384212431e-65  -1.0155460868856501e-71  9.1973159071904400e-19  -9.0731226709602236e-36  9.3075170539829606e-46  2.1455140371008455e-56  -9.2895393588055262e-61  -1.2002042858984884e-43  -1.9728205726457910e-54  -5.6729572402245538e-18  -3.4979330194127658e-42  -2.8847238060506223e-70  2.6331452560207676e-40  -5.1712149337613665e-23  -9.5500514084263202e-34  1.6704441528255225e-52  -8.9539197472774237e-32  -2.2562589000166805e-37  -1.6979655756288064e-28  -3.2081952060449577e-58  2.0274226368137591e-48  -1.3511687699741040e-11  -6.6759802700093831e-32  -3.6016017703340941e-20  3.5559424428013028e-17  1.5793137019985036e-20  2.4518646554410995e-16  4.2130433964715728e-16  3.4650036027637651e-59  -3.1021757991263541e-61  -3.0552284426833323e-41  2.0031703547480468e-38  1.9535901829484200e-38  -5.0628400911350007e-34  5.8253965851932097e-09  5.5316878347325368e-55  4.7850565645535430e-57  -4.6052986417419208e-26  -8.1620149879000813e-65  -2.5902473833367671e-52  -8.7307930417333482e-68  3.1164762740776545e-51  1.0664000043409771e-66  -8.0459948160266445e-31  -1.7656380875001453e-61  3.6891135283377273e-39  -1.1237475560563781e-57  6.5452437867615107e-58  1.3495347735739180e-06  1.3947278886907218e-03  -8.5800300579960101e-63  -6.7665503499200704e-30  8.4633440370959926e-74  1.8608990698290881e-07  -5.1095451337191795e-48  7.8579858590489724e-53  -4.5066578369101450e-23  4.8679465589644440e-25  4.5207351183820442e-45  9.9495238268673064e-57  3.6958177740722854e-40  9.2064653797240913e-28  3.1415164805089596e-71  -3.6489056918537298e-12  -5.9633154265376600e-47  4.6282977836467063e-46  -4.5850673999806331e-25  9.5860804868352897e-55  3.1101696500611449e-16  4.7405697150999354e-41  7.1870683586924657e-52  1.1536590142350545e-48  3.4514346292875356e-46  -5.2163206405124890e-63  1.3274093697538379e-37  -7.5612983517760123e-48  4.9374174993951241e-34  1.8682752494095903e-49  7.5802742260473468e-54  4.2494565739913672e-58  -3.4026772299995356e-60  1.2752389682909121e-48  4.4622088744900528e-30  -8.7232495849629451e-62  1.0726789872061513e-62  9.1924706633154574e-28  2.9405716855348544e-74  -6.0765181875181514e-58  -1.5890667656080475e-71  4.6038971885080996e-54  -2.9058774825672917e-57  1.7662083195667117e-61  -2.6510374619983417e-39  2.0027928201200505e-60  5.6105327278264441e-66  1.8900463905183702e-37  -4.6525782560508430e-36  -2.8705120922228539e-61  5.8357015281658483e-61  -7.8534537013072545e-64  -7.4337681534921500e-24  1.6201957480862913e-25  1.5507772338795309e-30  2.5998684118192372e-62  -3.6603406287712558e-17  1.2989516557115502e-21  -1.5086298662297741e-40  2.2364129869672743e-43  2.5658031032269848e-57  -9.0783308046447590e-10  -9.2278314018150051e-51  2.3578914717726686e-53  -4.6295875813154847e-15  4.2416766910410267e-33  2.5197372543483453e-06  -1.4875690729466141e-09  2.8959001833636012e-68  -4.1227413256629167e-75  1.0300160977717697e-78  2.7804268465012444e-76  -5.0239331926669043e-34  5.4833526432668549e-64  -1.0491721647221063e-12  1.1081627192548013e-68  3.9103801006696962e-73  -7.3975457343479366e-55  1.8739802487036809e-47  -3.7081955610576343e-56  -3.0059007286614965e-41  -1.2141225123143110e-57  -5.1366910404191124e-39  1.0316568798173808e-59  2.0771426274683387e-20  -9.5487850891935864e-20  -5.8826994373946471e-18  -3.8352381305747602e-63  -4.7351623180967506e-14  6.5467618872313462e-29  -6.9658609228483556e-15  1.7950415466090129e-49  -1.0049384254416690e-32  5.6653014503846782e-30  1.9241916771415861e-51  6.9538454593514952e-35  -2.7374408244897464e-36  2.7914424047038043e-39  4.0671280894573717e-31  3.0719644209218765e-16  6.5156431088417766e-14  4.2321797659654246e-57  -3.8238676580640067e-52  3.8208024103267878e-48  -2.3503033292823960e-54  1.4614578291716185e-22  -2.8961857352515475e-61  -3.8546263798146950e-37  6.2630962935504611e-51  1.6854817242207478e-34  7.8358617023838566e-24  -7.8090710028797920e-44  1.3790609876199754e-47  6.6824919487811136e-36  1.3559889971347497e-29  4.0324363645332110e-32  7.2418997656110645e-45  -1.8386934601904503e-58  6.2565098946474570e-24  5.9827011581152509e-54  2.1091784855803922e-54  2.1278932905622165e-37  -5.0272826918515031e-44  6.4897255271380562e-25  -5.9869593841353102e-48  -1.2511897228059706e-20  2.8180888637254850e-61  2.6384855888027626e-41  3.8234589979563462e-42  3.5716542221608889e-58  3.3605263408391108e-52  1.4611691959414968e-51  -4.4184644555414478e-55  -1.9595376773215093e-53  5.0459190192542965e-51  -5.8887586345947872e-34  -2.9510008660380197e-52  -1.8112643679506596e-43  8.9234300651713183e-35  -5.6007403545099326e-45  -2.2467817071850775e-46  9.4344301965455091e-61  1.1331543871846653e-40  1.9596012181408650e-45  1.1794129688638282e-45  -2.6883326394443697e-50  4.6913797327050136e-51  -6.3067582326815977e-38  -1.6043353383984056e-40  -8.2602344315878969e-42  1.8645690068019812e-33  4.8791095554268991e-48  -6.2190758220894657e-57  -3.4891266808487681e-58  5.2005572570699839e-54  -3.5452861649831472e-51  -5.6562086872478808e-54  -3.0204912408101368e-61  8.9316367946628865e-47  4.2354503965311478e-35  8.0251371502783108e-60  -3.5495892402326811e-60  3.0301749170487290e-57  -1.0276478723181442e-42  5.4079553559080026e-36  -7.4109519452599925e-28  2.6339346076127374e-46  1.5038782716726435e-43  -7.6566639514778732e-27  3.3361482012763181e-32  -1.2843086983507499e-64  3.2481826911194201e-22  -3.5345464323687930e-42  2.4572365909789020e-64  7.1672756574458589e-64  1.2071445753878795e-70  -1.0262194977086737e-51  1.5705934634590729e-57  4.3801534516914559e-35  -2.8174906630820153e-46  8.4621361324251544e-42  1.6257721544346626e-31  1.3268053222221573e-55  3.1020570609720075e-58  2.5436094898942164e-44  9.5284654518707825e-50  3.6671962093386146e-31  1.1037469325677379e-42  -8.9853923005266671e-35  -1.1441850725473253e-32  1.220292849429