<?xml version="1.0"?>
<VTKFile type="UnstructuredGrid"  version="0.1"  >
<UnstructuredGrid>
<Piece  NumberOfPoints="6486" NumberOfCells="12696">
<Points>
<DataArray  type="Float64"  NumberOfComponents="3"  format="ascii">0 2.5 0  0 0 0  2.5 0 0  2.5 2.5 0  1.25 0 0  2.5 1.25 0  1.25 2.5 0  0 1.25 0  1.25 1.25 0  0 0.625 0  0.625 0 0  0.625 2.5 0  0 1.875 0  2.5 0.625 0  1.875 0 0  2.5 1.875 0  1.875 2.5 0  1.770833333333333 0.7291666666666666 0  0.7291666666666666 1.770833333333333 0  0.9375 0.625 0  1.875 1.5625 0  0.642361111111111 1.163194444444444 0  1.341594827586207 1.883979885057471 0  0.46875 0.46875 0  2.03125 2.03125 0  0.3626104797979798 1.513178661616162 0  1.381740196078431 0.4564950980392157 0  0.9375 2.172619047619047 0  2.172619047619047 0.9375 0  2.096354166666667 0.4036458333333332 0  0.4036458333333333 2.096354166666667 0  1.684027777777778 1.163194444444444 0  0.3418803418803419 0.8693910256410255 0  1.642742622813391 2.162164207604464 0  1.275619849389031 0.8465650753054845 0  0.9136284722222221 1.434461805555556 0  1.732437511238546 0.3406962303960658 0  0.9714402568595876 1.029779313093998 0  1.52281746031746 1.485615079365079 0  2.1875 1.71875 0  1.06819722569879 0.2997236128493951 0  2.136114211309524 1.303478422619048 0  0.3125 0 0  0 0.3125 0  2.5 2.1875 0  2.1875 2.5 0  0.3200021620376328 1.192323085056694 0  0.6738456129277992 0.8304377375553881 0  1.757891808928991 1.861952730357003 0  1.5625 0 0  0.9375 0 0  0.3125 2.5 0  2.1875 0 0  2.5 0.9375 0  0 0.9375 0  0 1.5625 0  0.9375 2.5 0  2.5 0.3125 0  0 2.1875 0  1.5625 2.5 0  2.5 1.5625 0  0.7448220909826522 0.3003573636608841 0  1.027298850574712 1.871151477832512 0  1.331260495098891 2.197262878816185 0  1.207917681892289 1.582765010956622 0  0.4339993447432606 1.801186844743261 0  0.6337298768939392 1.443093039772727 0  2.049851190476191 0.6826636904761904 0  0.6584821428571428 2.219122023809524 0  1.89575676467455 0.9798457973793544 0  1.437570562095628 1.059380588255917 0  1.502090052505845 0.6987070896496241 0  0.2040860661083546 1.705323965099331 0  0.2083333333333333 0.46875 0  0.5070952039991439 0.2211150679997147 0  0.6916302856529919 0.5813591430410241 0  2.265625 1.953125 0  2.2265625 2.2265625 0  1.886424081252096 2.243391360417365 0  1.40625 0.202164758520858 0  0.2269345238095238 0.2269345238095238 0  1.152730869673694 0.5225850378741401 0  1.885631899587912 1.312095130148776 0  1.614808884009367 0.9049784971014416 0  1.890095442220658 0.5126535558463003 0  2.323168682795699 0.46875 0  2.268811725689575 0.2304742875213018 0  0.6002389442105756 1.967426444210576 0  0.1768313172043011 2.03125 0  0.2311882743104251 2.269525712478698 0  2.03125 0.176831317204301 0  2.280262553344767 0.6954945504579233 0  1.979219539285994 1.809922269642997 0  2.336309523809524 1.09375 0  1.09375 2.336309523809524 0  0.9314042474388009 1.662973812215543 0  0.1634067999087722 1.40625 0  2.337090640094896 1.40625 0  1.141616997467638 2.069311773587991 0  0.46875 2.338939559681489 0  1.542440307908715 1.734944797244472 0  1.556713687786879 1.956977865354753 0  0.8264238995344066 1.975424467820646 0  1.466326331454725 1.275271369760862 0  1.655675324257095 0.5444159974393489 0  0.3385416666666666 0.6479255698005697 0  0 0.78125 0  0.5236073939200119 0.984090461540625 0  2.091665741047893 1.519793517904215 0  1.71875 2.5 0  0.5356538886262603 1.623137930505009 0  0 1.09375 0  0.1932884281517095 1.015625 0  0.8569313582417669 1.2198915584249 0  0.8876981284879677 0.8329884081524883 0  1.115618488474214 0.7219586973356271 0  1.186950366204949 1.043465130075318 0  2.057459118787237 1.110823087309335 0  1.830651283878689 2.049810069572418 0  1.689107969301489 1.367247437031697 0  0.4921048768039656 1.298643370653124 0  0.8213975694444444 2.336309523809524 0  2.03125 2.5 0  1.049729400480002 1.283723261332814 0  1.308101375801673 0.6489479469700392 0  2.5 2.34375 0  0.4968777175037714 0.7562964879736076 0  1.40625 2.5 0  1.501347663534097 2.307027627307738 0  1.602813712048603 0.1926218191360736 0  0.8393082906308107 0.463778306132633 0  1.682663349152719 1.598471865581041 0  0.7774174680851571 1.560004941327907 0  1.554204170364662 0.3898593897892066 0  1.842184459051087 0.186443880058197 0  1.358107417651776 1.696381759610015 0  1.18859291992392 1.77598670078022 0  0.1875331222687418 0.7609599743339348 0  1.339536743965101 1.422080365801479 0  0.7788179348750389 0.9955343414928611 0  0.9062978492805438 0.1919636509126373 0  1.256007360640958 0.3160320559396114 0  1.09375 0 0  1.174986727221844 0.1594990293443933 0  2.34375 1.796875 0  2.318026474511116 1.589177949022232 0  2.34375 2.5 0  1.672742954892153 2.332882724550692 0  0.2683637361947215 1.874801596909639 0  2.174770749820102 0.5581009131310781 0  1.443279522965991 0.8870068372898454 0  0.3385416666666667 0.3571428571428572 0  0.78125 0 0  2.060421048269335 2.314363248763811 0  1.088078737088509 0.8967352118723447 0  1.087825368444708 1.454931510884769 0  2.018308232129541 0.8548495425854904 0  1.943987311736842 0.3246298523011434 0  1.71875 0 0  1.85337849796276 1.144833312386208 0  2.3486328125 2.1044921875 0  1.407588788651747 2.042968789119587 0  2.336309523809524 0.865366648092144 0  2.34375 0 0  2.5 0.15625 0  0.15625 2.5 0  0 2.34375 0  0.1638044648294291 1.242263417405867 0  0.356216654757926 1.032569427322806 0  0.3188217956111817 1.355736727000647 0  0.5924956460852111 0.36112522004736 0  0.6594216488965849 0.1603472116132387 0  1.841804599497131 1.72214349266521 0  0.15625 0 0  0 0.15625 0  2.115898634821499 1.894570904464496 0  0.7821877980253907 0.7129993435924866 0  1.003820447087786 0.4516053462784233 0  0.477562948779147 1.138333049293613 0  0.719493678605015 1.305655360135975 0  0.9772457618587566 2.020350128938537 0  0.8764738248887107 1.826219722709673 0  1.254787875123819 2.339010653832026 0  2.343597354852534 1.249982759769001 0  0.78125 2.5 0  0.46875 2.5 0  2.5 1.40625 0  1.09375 2.5 0  2.5 0.78125 0  2.5 1.09375 0  2.03125 0 0  2.5 0.46875 0  1.40625 0 0  0.46875 0 0  0 0.46875 0  0 1.40625 0  0 1.71875 0  0 2.03125 0  2.5 1.71875 0  2.5 2.03125 0  2.005424054645407 1.653223486966518 0  0.1538730573856537 1.559850281736677 0  2.33984375 2.33984375 0  1.166539506212474 1.922878979538754 0  0.3914885633949916 1.65887232812171 0  0.5795503163042564 1.766243562569382 0  0.399533125920212 1.946786875081388 0  0.7866324979014098 2.127719094551316 0  0.3654683023546834 0.1495701132219454 0  0.1527388747131078 0.6116379440619215 0  2.013737577140188 1.391056634712135 0  1.17635437372994 2.213329084238133 0  1.737118141866284 1.010577140843115 0  2.200707118087222 1.164723314085963 0  1.697018908736685 1.993548551451517 0  0.5387621649009668 0.6070503962352419 0  2.032805785855952 0.5330427622570983 0  1.082699501358059 1.667818725183932 0  1.503819781540653 0.5468420196858188 0  2.015409142866072 2.175941657590429 0  1.752057611265444 0.869642097111018 0  0.612251684107783 2.356045720700959 0  1.902817102342857 0.6607642211999982 0  2.159616561739693 0.7867739969338844 0  0.5120038350106624 2.197302352398502 0  1.888200216011548 1.919501662489862 0  1.495909909726654 2.16028358757309 0  0.489139876703609 1.443203008943564 0  0.8819175670410521 0.3301172743913011 0  1.882591144370812 0.8155965192707721 0  1.133979796994841 1.172526771862882 0  2.206217447916667 2.084147135416667 0  2.20361328125 2.36279296875 0  1.395746985657004 1.556054166359645 0  1.704383111516207 1.734750450338683 0  0.9575737847222222 2.36274223823052 0  1.035150984253136 0.1302833343179028 0  1.383966125325753 0.7651479963479179 0  1.64003252158672 0.6824316405528895 0  2.22550785055421 1.487078576356817 0  1.760964431499756 1.48495222505201 0  1.276460980673788 2.004207003584658 0  0.1341477688427096 1.828777507920502 0  1.542261434180652 1.155296658359034 0  1.334627911613854 0.9696897472490321 0  1.30794231473696 1.119420615785191 0  0.7028260459857245 0.4438906910721139 0  1.625757433094055 1.84268057552138 0  0.9818707849053143 1.165603626132254 0  2.0086489901463 1.243134585689553 0  1.934584460420609 2.374094051915812 0  1.798434376789567 2.38671361912528 0  1.206314791201715 1.382064292497919 0  0.6333752893366955 0.7023738550008095 0  0.7796219811205605 1.42573253164258 0  1.564399711917382 1.026040828857629 0  0.3385416666666666 0.4889012896825397 0  0.1041666666666667 0.390625 0  0.989112246382566 1.543537365516289 0  2.025724425454636 0.9846960595520872 0  0.6602885475034063 2.086117390485779 0  1.607130551925032 1.267198646640915 0  0.1317864544877056 0.8896173683400176 0  1.755387840017567 2.230364320056445 0  1.301540702984401 0.1216289692748247 0  1.433170657577442 0.3331052752740999 0  1.500459610550388 0.113513924782439 0  0.6494291520606965 1.029586599619295 0  1.010146149868299 0.794897284196169 0  0.3700844198238017 2.235390157870766 0  0.3360891767780704 2.36656279435396 0  1.876856241037701 1.437150669863757 0  1.778674102957329 1.245979347269706 0  0.5472829890977179 0.1005517127039925 0  0.4669074189005698 0.3416784232954367 0  1.472765289289269 1.850899166481903 0  1.555853593327178 1.608452097912802 0  0.6708955559113426 1.646561631116984 0  0.8164699620322933 0.5924479455478063 0  0.3167738989468366 1.758696809749795 0  0.2788007305565096 1.605499483471246 0  0.7821720982350511 0.181524936294752 0  1.376812251214195 2.313340247908297 0  1.785652202614777 0.5962261755537186 0  1.761467296310972 0.4679567244718574 0  2.2265625 1.8359375 0  2.3828125 1.9140625 0  0.5279531607054191 2.071552361614785 0  2.397573269551114 0.234375 0  2.383578172599618 0.3589298466020009 0  0.1024267304488855 2.265625 0  0.1164218274003825 2.141070153397999 0  0.2696857594953064 2.135405441512016 0  2.164961300137334 0.1375322943529536 0  2.137757548369486 0.2724194778647587 0  2.238873711826398 0.3626419179496562 0  0.1001414910226386 0.234375 0  0.2176339285714286 0.3478422619047619 0  0.2503620791333544 0.1061694061057066 0  2.336445461915368 0.1250451055247424 0  0.2154004640409726 2.3918124
[...]
<PointData  Scalars="f_49-2"> 
<DataArray  type="Float64"  Name="f_49-2"  format="ascii">8.3029054696734505e-22  1.4708436566786692e-17  -2.2455127580118966e-28  -6.9282259936764557e-22  6.2025010822604398e-19  -2.0471624353305263e-24  1.0393199665160126e-21  6.5989185138904267e-17  -5.5836170631331432e-16  4.5446817281753900e-17  8.1928256325830118e-18  1.1376940967674626e-21  2.9865734890901683e-18  5.4946098837267668e-29  1.4686063152746564e-22  -5.0316275410199615e-21  -3.4317850105594292e-20  4.3968246866114075e-21  1.0141908745154597e-17  2.4860797362435616e-18  -4.3632534746863225e-17  3.0838623970690682e-16  -2.8002622108866778e-17  1.2915469066312805e-16  -5.4602408557564681e-18  3.9148608149315272e-17  3.4206918904232005e-19  1.5557929031227598e-19  5.9326275373309996e-24  3.7702349505716941e-24  3.5048310237324194e-19  -7.1930229236310827e-18  1.2389086061634604e-16  -5.1227118791354714e-18  -2.1692876807449827e-18  2.8990460340972938e-16  2.7351752337277399e-21  2.5591477094340977e-17  -6.3541570219607523e-16  -8.7140845147680551e-19  2.2613793121745193e-18  -4.0916692785963520e-20  1.1945857880675387e-17  2.9867799477072094e-18  -6.1449316058038032e-21  -9.7563735861469736e-21  6.9129142434778738e-17  1.0210059654018354e-15  -1.0095648706710031e-16  1.8341186168733264e-20  3.4204544300968896e-18  6.5726945040132113e-22  8.4353426880882187e-26  1.5929691227280448e-27  7.2313267826167128e-17  3.0156185208802270e-17  1.0020578788875545e-21  -6.0373345166436386e-29  8.8233145783356261e-20  -8.4394034781916614e-21  -6.9921574629168581e-22  6.3359468984588678e-18  6.2819100383957663e-18  -8.0125268990142198e-20  -6.6966911256451522e-17  8.5763272624510467e-18  5.2636894496233175e-17  3.2146593938460723e-23  7.2185779338260305e-20  -4.0787807051732207e-21  -2.5077931507145401e-17  1.1299508715127500e-19  1.4987575723728038e-17  1.1283497732079099e-15  9.3776854877386139e-18  2.0674527569751935e-17  -3.4947874723067608e-19  -1.7213255308370877e-19  -1.4455708740093683e-18  1.7567719828395667e-19  5.8536177870994447e-18  1.6236737491397799e-18  -3.1071745548131642e-18  -9.1325979502788685e-20  3.3282329460936503e-22  1.0757497823081296e-26  3.2704695541560502e-26  1.9585824040987851e-18  5.9867660884082193e-19  2.5309411146466253e-20  9.1175015397048201e-24  1.9048112243070348e-25  -2.0360835250348950e-17  -2.8466549687670737e-24  1.4332168668927865e-20  3.7980357012818173e-17  5.2577168435689281e-17  -2.9986603466011430e-21  6.6592575505503070e-19  1.1361218824936602e-20  -3.7576317526402404e-16  -5.8754493954191848e-17  1.7009068958928748e-18  -2.6625633815085076e-16  2.0483020753029274e-20  1.0849404509270943e-15  6.3438185785484601e-17  4.3060505283749606e-16  -9.7443002175776020e-19  -2.9382495506644093e-20  2.4208638828606410e-17  7.2317766205034551e-17  7.2953271163780360e-17  7.5321969206378407e-16  -9.4091433217898117e-18  5.1425132260110660e-19  -1.8560088932300668e-16  -5.1106740785130318e-21  -1.7292406070582903e-17  -8.2379842464992706e-17  6.4046280370278716e-17  1.5073225782433691e-20  -2.7830225802108760e-20  1.4983702747732750e-16  6.2093955665110257e-19  -2.4911765444520817e-21  1.4764714208951578e-15  -1.3679758681694807e-22  -1.7479793074991717e-19  1.4111819637927891e-20  4.7396199606240272e-18  -3.1231082170555582e-16  4.1050917293621702e-17  5.4467893629570645e-20  2.6638920844084267e-22  -2.5603518543688655e-16  1.6638211510851985e-17  6.6233907394595135e-17  -7.7920741426153021e-16  1.0115804992289055e-15  4.0098377463545171e-18  8.0903131036049262e-19  1.7519945228257438e-18  1.3654831884174462e-18  -7.5577737474301325e-20  -3.5681700536611243e-20  -3.2102174044169702e-21  -4.3330213329689942e-19  4.0398631652285821e-18  1.0850968014208816e-24  -7.6400029143113403e-19  1.2746749547741456e-16  5.4815661856570981e-18  -2.4275726537957105e-19  -5.6904038671036969e-17  1.8301896571602553e-16  9.7226981869284195e-23  7.2610111924900578e-23  2.2384307675887918e-21  -3.4959733318069329e-19  -7.7131291234824293e-20  -6.1728379386715396e-18  1.0883958675388678e-25  -4.0529057793068747e-29  -1.5034498748815102e-28  6.6573261952407882e-22  6.0188542889635662e-21  6.5986836788668459e-17  7.8280941550942216e-17  5.7350335393001405e-17  7.2074261989683883e-18  7.5682555259618324e-18  -8.6237133738202926e-17  1.3856934090451436e-17  1.4321904827018199e-17  -3.2129791725796749e-18  2.1264470086957748e-17  2.9647015375686518e-18  9.4741214091029589e-17  2.0232663179751060e-16  1.1072797057202553e-18  7.1722834838310581e-18  1.2403550143935776e-20  -1.2077167401908280e-22  9.6389139689544651e-22  5.8652658098650730e-22  -6.8039217176273342e-23  9.3677813473591675e-22  6.8382368330516304e-28  6.5565258071216292e-27  8.8252669833647850e-24  -5.3010957963663523e-29  8.9024876372915875e-20  1.0249125409807398e-17  2.4852906366275974e-17  5.2470335629702462e-17  1.3002846622094253e-17  7.1764036671657615e-19  -2.6100704159476729e-21  -6.9713777878503852e-21  -1.0581219473927015e-17  3.1658370260276530e-17  -2.0739356166601988e-20  4.3922214481626926e-18  2.2801789685967250e-17  1.0173274635434377e-17  2.1103167160382779e-18  2.9014083051995280e-19  1.0988149072562105e-17  5.8133215182604150e-17  -1.2064046482475720e-18  1.0227604247286456e-19  -1.8331010498387286e-19  -4.1926689872055109e-22  -4.9828137684118327e-17  5.2381532792137760e-16  2.6184624895025327e-23  6.9911768319807020e-17  1.0525295837311618e-19  -1.6853151048562114e-18  4.4340709643780293e-21  8.6995428275262249e-21  5.7669217625150240e-22  5.1323356302571486e-24  9.6375438440378413e-20  -3.1199160447016880e-17  -2.2337970868953020e-18  4.7642047392472968e-17  4.3509036703510415e-18  6.6798524895882423e-22  -3.4361281814402216e-16  -5.1946470990957619e-19  -4.4457139987129974e-20  -6.9034275156217385e-16  -2.2864510144635800e-16  7.7156235658529571e-21  2.5561046864265919e-18  2.8765723649631648e-19  2.3738337795014113e-20  -9.0521146977564079e-20  -1.0521134990759756e-16  -1.9949684821907304e-19  6.2977762820789950e-18  -3.4438602580391832e-17  -1.4355373320319731e-17  -1.9619740796975080e-16  6.2581671055957624e-18  -1.8740685465141728e-16  3.7209768907915576e-16  -2.0643396967669424e-19  -2.3198159741736657e-19  -2.1103080441732919e-19  -4.0698851247145137e-16  5.4134094123901399e-16  1.1631239294527892e-16  -2.6534835154814324e-18  1.1307564303795692e-15  2.8995082932919864e-16  1.6366539088690613e-16  -1.7579994252933927e-22  4.3618274574325271e-19  -7.6466622088548892e-17  6.9880152037658285e-17  -2.3221094174492016e-18  4.4592030873657051e-19  1.9717944001664708e-19  4.7189268721435168e-20  8.6358492876158356e-16  -2.3496525147897633e-17  5.0464250963112362e-20  5.2801269874016064e-21  -1.4215615262430943e-17  -6.7210296488906135e-18  9.0365085420036470e-18  9.0145238663025502e-18  -1.3755221473134162e-16  -5.7322811713335835e-16  2.0244910186808287e-17  4.1581728671291857e-18  1.1177957578225395e-17  2.8220660536863052e-17  5.8419789988377472e-18  -2.2232215353293832e-20  3.7341349414426448e-21  2.9581664293610414e-21  -7.3588253371473078e-19  -4.8379211244703510e-20  5.6140046389270228e-19  -2.9787213403962231e-29  5.8335881736747434e-28  2.8834823229916924e-20  2.0206350627253502e-19  1.9052400531702780e-19  5.5413517829318018e-25  9.6281718323045242e-25  1.0582029087009158e-25  -1.0012796694975503e-17  7.2878711383725954e-16  1.2362291161996717e-17  3.8977796950051654e-28  4.1902680990998922e-21  8.8261919902291142e-20  1.2630209420148489e-17  2.8680782416943926e-21  2.1284219324659424e-18  1.4243585947117617e-18  7.0591929271068747e-19  1.2866676197687789e-18  -2.9690441099926692e-16  8.8119513561922395e-16  1.7232330196875262e-18  5.4077610473931336e-23  5.5597690420723751e-27  1.5461666388075625e-26  -2.3775326657650235e-20  1.8842942959932312e-17  3.5551333533211603e-18  3.9432936779386217e-18  5.3482158227573975e-20  -3.9963951228524399e-19  -3.3279992330659190e-16  5.3608624270120682e-22  6.8113887163680075e-16  1.8922527927472048e-17  1.6345767317471510e-17  2.5106788620667682e-24  4.6904933904531324e-18  -1.2931700774245812e-23  1.6655783661141857e-19  7.0848057049211524e-17  4.7768995186499559e-26  5.6188043933022856e-17  1.0812537473560909e-16  -5.4061692741024976e-18  -1.2962594363666422e-17  5.3771501849546714e-23  3.8379576806483700e-21  4.5975306241066561e-17  6.0548548393069094e-17  -1.4176952087724584e-21  -5.2968362671672899e-21  7.5332171892787666e-16  7.8137677055191812e-21  1.7627408366566390e-20  -5.4527340383945018e-18  6.8496275549187311e-22  -8.3213012452448721e-21  -2.0027782470818939e-17  -1.4448079351626679e-16  4.4360019566590799e-21  5.8040901159305241e-16  2.0089702467514315e-16  1.1929295393139846e-15  8.9154131210776085e-16  1.5437936063947686e-20  2.1087685769594403e-17  6.9843752917556299e-17  -8.6431007822946713e-23  -1.8699212025467164e-24  1.8625299699900751e-21  3.0225385606489062e-21  -3.3196023543629447e-21  -9.1431679358490341e-18  -2.0209058725800576e-19  2.9638734302787587e-19  -4.6583709970629406e-20  5.7054832746912891e-20  -1.4695482190645275e-17  5.8573395009059809e-19  2.8968181404594309e-18  -6.1437429838616254e-16  4.3985553205358796e-17  8.3072989175780710e-18  -7.7910593765942429e-19  -5.2819097908675272e-16  -1.7046923137085754e-16  -3.8749111294394646e-17  -1.2986417708394224e-20  1.2419046720988998e-15  -1.0828389552902006e-17  2.2557474825344935e-16  -7.0661149279039090e-17  1.9914376159331668e-22  3.5909527447343684e-16  2.4187191251040244e-17  1.3081685829751029e-16  2.2787648091367875e-18  3.2000880990983104e-19  6.4134750539092375e-25  9.2097389669329017e-17  7.6929391392598779e-19  7.9138971686955525e-18  6.8590645597781844e-20  7.1383137219361355e-17  2.5301436392111749e-16  -1.2764758474614429e-18  -6.9397947192793857e-16  1.2406584504942923e-20  -1.0619528283324388e-19  4.0315560769806175e-16  2.9639624695400595e-17  7.2980746611578482e-17  -1.2991150280223401e-20  -1.0641023676777146e-22  -5.0783492294847710e-16  -1.1412430616515420e-20  -9.7588374509689191e-20  3.2043646859003893e-17  1.4001555667091057e-15  -6.2579421429280908e-28  1.2375876165666840e-18  3.9549019743520025e-19  -4.9078724855982536e-18  3.9376057994702475e-25  1.6624002791115854e-17  3.3238781786202078e-17  -1.9960369163392780e-17  1.4792878933792661e-15  2.6343627477902751e-16  7.4483543097424473e-22  -3.9619610510371896e-16  -3.1373436590603012e-17  -5.5149441333599888e-17  -1.2108914633528705e-18  5.9909079075571994e-17  6.7875390591472866e-17  5.5585486072443362e-18  -1.6724690844978776e-16  -4.7079059211972904e-17  -1.4162414605708499e-17  6.6286265648272531e-18  -1.3797743933293477e-16  3.6288283453380833e-21  2.4129761501046781e-20  9.4554094613838754e-24  7.5398970739252578e-19  1.2834188492037316e-18  1.5421724768852480e-19  -1.1354637669559754e-17  6.2612750070187156e-18  1.1415754341165569e-25  1.2103591445992815e-17  -1.4309099527202669e-16  6.9158029471514584e-22  -1.1182282911254005e-20  1.1465495911154429e-15  -3.9759654374612045e-16  2.7183567480631796e-19  3.3538514677451321e-18  1.3370854624215961e-26  1.7957008513087218e-17  7.2380950398602263e-17  -3.2774983943687005e-19  -8.0757633277468589e-20  1.2672190403607683e-24  8.1633198912765954e-22  -1.1709405634363681e-19  1.0282515087352686e-15  -1.0719965700644376e-17  6.4458533150412510e-17  -2.6510029554977265e-16  4.9276363613152376e-20  6.4069296005200107e-17  1.1188021274701709e-24  4.2176605321275727e-24  5.5248627084964049e-17  3.2689019044234823e-20  1.8150842742337701e-16  5.0189075549802387e-20  1.7487224877998974e-16  4.5665717047413138e-23  5.6491005015013841e-18  3.8986030544853989e-18  1.3948813542396452e-18  4.4127139308843671e-19  4.1825863659736445e-19  -4.7180406696883384e-17  -1.5826843053519219e-18  -2.8580208482176984e-16  1.0166962378907825e-17  6.1411791108247167e-22  -6.1960009769609936e-19  -1.8297361281992501e-19  2.5868453203961158e-20  1.1711166558707895e-16  -1.6328335928051983e-20  5.7635156609311333e-18  2.0423028387090810e-18  4.3186108762331053e-16  2.2740906949083916e-19  4.3572691456916990e-17  1.4195053769612756e-19  -2.8400809901186883e-18  -8.4289679019975065e-19  1.0142874159134045e-27  -1.4082444806826658e-20  -5.6193903169872370e-19  -3.9419010665961754e-18  2.8688772805424133e-18  -1.7929683963015049e-18  8.1900399281837696e-23  -6.6942839795275319e-18  -3.1303885294531589e-16  1.0838406566632569e-17  -1.4342872934114471e-29  7.8925636921565828e-28  3.7766060805391282e-21  3.4333323520506156e-18  5.8850715486748445e-18  8.1389625285880636e-18  -1.0241432869846999e-20  -1.0906674891119548e-19  2.9715004343116931e-18  -6.1377123013547056e-19  2.9801705431257672e-18  1.3239027937643047e-16  -4.8068043994507520e-20  7.0914066319630848e-18  1.4696442907779701e-18  2.2924696563536729e-21  3.7806428355128824e-21  1.8268474757021070e-18  5.1276959128157920e-18  -3.4937527123465930e-16  1.7146128918362677e-25  1.0254699025287140e-19  4.0246334696064342e-18  -7.8520660567820087e-19  -7.5764901767929194e-20  -4.5691869760302203e-17  6.5134989582603822e-19  -2.6927465646433078e-18  7.6667183636343491e-24  8.5880389128485091e-19  3.1807015202884345e-28  2.7756772905171654e-23  3.5848612589549832e-23  4.6835222687911068e-23  -1.9313737797607665e-20  -2.0254199929111549e-19  -1.2939779246929397e-20  -2.1625168927729456e-28  2.1663663623645153e-19  2.4706286166526047e-24  7.2255248223226773e-17  7.6104895917879920e-17  -4.3890205843694522e-19  -1.4579022433994080e-18  -1.1431271495744214e-19  -2.2277240613938884e-17  -2.3401321509052381e-20  -1.6964428319802272e-19  -2.3079381409421123e-18  -4.7512745970355948e-18  8.2557653345984043e-27  8.8376128451327345e-20  1.5080174208029956e-17  3.9625319206970258e-18  -2.6257349631251897e-17  2.3182674509689973e-20  6.5558051138048647e-26  4.3145338015203723e-17  9.3300242701102095e-16  7.6480853635584373e-17  1.0004591046693247e-17  -5.0060011048385613e-28  -1.5644721772209927e-16  6.9782747883106584e-17  2.6396145923101700e-27  1.1651809937972511e-20  5.4302705450670982e-20  1.0537805387897902e-20  -2.0245589000307883e-18  -8.0727051079811192e-21  -6.9709683693013241e-16  -9.0510587256530747e-19  -2.9528982740779131e-20  7.5758351176203860e-17  3.5456623904069951e-17  -8.1063462281797521e-17  -8.0036552775497406e-22  1.2135897969462189e-26  9.7036583466212562e-18  -1.0517297884539992e-16  8.5675605822543962e-18  5.1599218970269456e-20  -5.9314283728392372e-21  -6.8453324218488430e-16  7.3136900375224063e-17  8.2331541473269544e-17  -3.0009034728652300e-16  6.2946821583896173e-17  -9.6545864329198641e-17  2.1702846598077732e-18  -2.2505072169402144e-20  2.3822799493507362e-22  9.5270267767931991e-18  5.7047906355254400e-17  6.5693637692767840e-18  8.1963410443772624e-18  7.0097270367785548e-18  1.3278026141639699e-17  8.0931590912107997e-18  -9.3707764865126221e-26  3.2227422486257271e-27  -5.1843013177434391e-16  2.7516526706863193e-16  -5.0915428313557343e-17  4.8677607307081159e-17  5.9045767326958791e-16  -1.3298927404674600e-16  -4.1433541904318026e-23  2.7933590552021289e-18  -1.0853247007066664e-18  1.0507925097789938e-25  -2.2307701328923767e-19  -9.8785900890495813e-18  -6.3309293598101656e-19  -1.5095584146193068e-17  -7.5751728456053797e-18  1.5324737839296458e-19  1.4619366466041320e-20  1.2582218675408968e-20  1.4213062410826286e-17  1.4966938675209471e-17  -4.0921153356160338e-18  2.7972462976076594e-19  -5.5746284277341397e-20  1.1301075444464779e-17  2.2755966563615787e-19  -5.8024781083113078e-29  6.1235969182294318e-17  3.3476223761369052e-16  -4.2697551510822549e-20  -4.2654132082828072e-18  4.1876976546961108e-17  2.2932797988884007e-18  -4.1054003731482653e-20  1.1958815869714973e-17  8.9288439081266482e-26  1.2081208051203002e-23  2.9987923852086889e-18  -5.9900382120337566e-22  1.4908826668714869e-15  1.7418299842090288e-17  1.8969660609816052e-19  7.4276866448459943e-19  6.1771010597318101e-18  -6.1087390939640565e-18  2.3693575422643462e-21  -5.4715546647040855e-16  4.4509546450055856e-16  -1.0192381313272370e-16  -5.1369903036032906e-18  -6.8404737460571934e-22  -1.4734669794964141e-23  1.9985371558571044e-19  6.6291700420809484e-17  -1.8828292128005263e-21  -3.0057813485082821e-21  9.8036818762019423e-19  -5.0313582339086479e-21  9.7003489092562651e-22  -1.9259006327132263e-20  2.3975439387984487e-21  7.9839801379948656e-22  6.1429223245281072e-22  2.0888288085669462e-17  1.0648569877656935e-21  -1.8383445249993514e-21  4.3520484187972184e-22  6.2358011682635820e-21  -1.2631049464692384e-25  -9.6816550038639940e-24  -2.2872727307549294e-22  7.3015068593842557e-17  6.9708805665747916e-17  6.0280875921534977e-17  9.6965457187584135e-22  5.3657407262789659e-17  4.3652629777477050e-18  4.1859185505961158e-23  1.5870995862943708e-18  6.3812936132626960e-22  1.3131805933644872e-17  2.1638320082450589e-20  -7.3427347593702528e-29  9.4034245850313632e-18  4.8415393420962637e-20  1.0803525884300251e-17  8.1936568785572063e-18  -3.5225813821002814e-20  -4.0228461643988804e-21  -1.5562733948676856e-21  -1.4028661580613329e-21  3.9397915341574309e-17  -2.3536742352117635e-21  3.6218575196214887e-17  -4.0326735223487153e-21  -7.8600997101785740e-21  -6.2464023418046539e-29  6.1436586204160238e-22  7.8121521445265866e-20  8.8283251550409975e-17  3.1319223387349621e-21  1.4926774751443410e-19  3.8044158713369534e-21  5.4296641143475671e-17  1.2643222440550208e-15  3.5661914555153094e-16  -3.3640869732547346e-19  1.0477134630164749e-17  6.1476053703780852e-16  3.8715321886382291e-17  9.4065607106991958e-19  4.6427182603250998e-16  2.2332529771011276e-18  4.5105001812855121e-19  4.5387012735563103e-17  3.1431618778852456e-17  2.4877267101858896e-17  5.9796888427472960e-17  5.6004710318380145e-17  2.6216779678545953e-16  -3.1442334680600953e-23  -1.3303701328414745e-16  2.5268620653916618e-18  -5.4110513870183910e-21  1.1524250572144968e-15  -5.6917376440840589e-22  3.7170295238997698e-17  8.0216177280796909e-19  -6.1663176556934754e-17  9.4088129412470198e-17  -7.9629176857848985e-16  1.3843058252922609e-18  1.8769779568637616e-19  1.0376878818722301e-15  7.4405377738220447e-16  1.3295320743688725e-22  6.5466457817338102e-25  9.2191350613878894e-16  7.5058001407439490e-24  1.0057799928746744e-24  1.2573534950578221e-16  -1.3014017516054895e-18  4.4928427850112983e-19  -2.1051435688413883e-17  1.0800112647077339e-17  -1.6067106596068263e-19  1.8901875185965245e-17  1.2781446367111513e-17  -5.8356150464194064e-18  -3.7155224728708267e-18  -1.0178337717701403e-18  -9.4019140316130489e-19  -2.7883725188522337e-19  2.1356863775638218e-19  5.2649200143826647e-17  5.8872010823268008e-19  1.0097441350481955e-17  2.4296354881160767e-20  4.7027463844631622e-18  3.1320193551839415e-18  -3.5732744515911940e-20  -5.7118128763468448e-18  2.2173914027790080e-21  8.2928964241441657e-22  4.9373051977217541e-19  1.7315080260577169e-18  3.0072443298856123e-17  2.5502218267315092e-17  1.4815025666017650e-17  -1.2835138186150037e-16  6.5518198368441146e-25  4.6221329822710056e-20  3.6081703009288614e-20  8.0424849210465733e-20  1.1374714069391186e-19  4.0005683773691203e-20  -3.6927767517607361e-19  -4.0523951847076749e-16  1.2834940036358866e-19  -1.2222255273327688e-19  1.3821687827135403e-26  -2.4662628739140056e-20  3.8482182231212016e-17  7.0602116966060203e-17  6.7965732696928823e-17  -1.4688082297322058e-16  1.4326398953012517e-23  8.0080967791834880e-18  3.6648757707813040e-19  -5.2438461710737661e-19  9.0981234912346436e-16  1.4011977410350529e-22  -3.0535341449467914e-18  -2.0178480971189816e-18  -3.1216186225413340e-20  9.3107542939037627e-24  2.1553117796152319e-21  4.7341289222118792e-17  -4.6427098374062160e-16  -3.3599078055897867e-16  6.1781661958801100e-17  -4.5592431759341465e-17  -2.8053597764174277e-17  5.9625354744024382e-18  9.5889203605276477e-27  1.2313397973908087e-18  5.9483550501251855e-17  4.7762067529567193e-17  5.5018390754375893e-17  2.7916980224996642e-20  3.0688635595420278e-21  9.8150213052791662e-23  1.5896857446403052e-21  1.6539800629508