<?xml version="1.0"?>
<VTKFile type="UnstructuredGrid"  version="0.1"  >
<UnstructuredGrid>
<Piece  NumberOfPoints="6486" NumberOfCells="12696">
<Points>
<DataArray  type="Float64"  NumberOfComponents="3"  format="ascii">0 2.5 0  0 0 0  2.5 0 0  2.5 2.5 0  1.25 0 0  2.5 1.25 0  1.25 2.5 0  0 1.25 0  1.25 1.25 0  0 0.625 0  0.625 0 0  0.625 2.5 0  0 1.875 0  2.5 0.625 0  1.875 0 0  2.5 1.875 0  1.875 2.5 0  1.770833333333333 0.7291666666666666 0  0.7291666666666666 1.770833333333333 0  0.9375 0.625 0  1.875 1.5625 0  0.642361111111111 1.163194444444444 0  1.341594827586207 1.883979885057471 0  0.46875 0.46875 0  2.03125 2.03125 0  0.3626104797979798 1.513178661616162 0  1.381740196078431 0.4564950980392157 0  0.9375 2.172619047619047 0  2.172619047619047 0.9375 0  2.096354166666667 0.4036458333333332 0  0.4036458333333333 2.096354166666667 0  1.684027777777778 1.163194444444444 0  0.3418803418803419 0.8693910256410255 0  1.642742622813391 2.162164207604464 0  1.275619849389031 0.8465650753054845 0  0.9136284722222221 1.434461805555556 0  1.732437511238546 0.3406962303960658 0  0.9714402568595876 1.029779313093998 0  1.52281746031746 1.485615079365079 0  2.1875 1.71875 0  1.06819722569879 0.2997236128493951 0  2.136114211309524 1.303478422619048 0  0.3125 0 0  0 0.3125 0  2.5 2.1875 0  2.1875 2.5 0  0.3200021620376328 1.192323085056694 0  0.6738456129277992 0.8304377375553881 0  1.757891808928991 1.861952730357003 0  1.5625 0 0  0.9375 0 0  0.3125 2.5 0  2.1875 0 0  2.5 0.9375 0  0 0.9375 0  0 1.5625 0  0.9375 2.5 0  2.5 0.3125 0  0 2.1875 0  1.5625 2.5 0  2.5 1.5625 0  0.7448220909826522 0.3003573636608841 0  1.027298850574712 1.871151477832512 0  1.331260495098891 2.197262878816185 0  1.207917681892289 1.582765010956622 0  0.4339993447432606 1.801186844743261 0  0.6337298768939392 1.443093039772727 0  2.049851190476191 0.6826636904761904 0  0.6584821428571428 2.219122023809524 0  1.89575676467455 0.9798457973793544 0  1.437570562095628 1.059380588255917 0  1.502090052505845 0.6987070896496241 0  0.2040860661083546 1.705323965099331 0  0.2083333333333333 0.46875 0  0.5070952039991439 0.2211150679997147 0  0.6916302856529919 0.5813591430410241 0  2.265625 1.953125 0  2.2265625 2.2265625 0  1.886424081252096 2.243391360417365 0  1.40625 0.202164758520858 0  0.2269345238095238 0.2269345238095238 0  1.152730869673694 0.5225850378741401 0  1.885631899587912 1.312095130148776 0  1.614808884009367 0.9049784971014416 0  1.890095442220658 0.5126535558463003 0  2.323168682795699 0.46875 0  2.268811725689575 0.2304742875213018 0  0.6002389442105756 1.967426444210576 0  0.1768313172043011 2.03125 0  0.2311882743104251 2.269525712478698 0  2.03125 0.176831317204301 0  2.280262553344767 0.6954945504579233 0  1.979219539285994 1.809922269642997 0  2.336309523809524 1.09375 0  1.09375 2.336309523809524 0  0.9314042474388009 1.662973812215543 0  0.1634067999087722 1.40625 0  2.337090640094896 1.40625 0  1.141616997467638 2.069311773587991 0  0.46875 2.338939559681489 0  1.542440307908715 1.734944797244472 0  1.556713687786879 1.956977865354753 0  0.8264238995344066 1.975424467820646 0  1.466326331454725 1.275271369760862 0  1.655675324257095 0.5444159974393489 0  0.3385416666666666 0.6479255698005697 0  0 0.78125 0  0.5236073939200119 0.984090461540625 0  2.091665741047893 1.519793517904215 0  1.71875 2.5 0  0.5356538886262603 1.623137930505009 0  0 1.09375 0  0.1932884281517095 1.015625 0  0.8569313582417669 1.2198915584249 0  0.8876981284879677 0.8329884081524883 0  1.115618488474214 0.7219586973356271 0  1.186950366204949 1.043465130075318 0  2.057459118787237 1.110823087309335 0  1.830651283878689 2.049810069572418 0  1.689107969301489 1.367247437031697 0  0.4921048768039656 1.298643370653124 0  0.8213975694444444 2.336309523809524 0  2.03125 2.5 0  1.049729400480002 1.283723261332814 0  1.308101375801673 0.6489479469700392 0  2.5 2.34375 0  0.4968777175037714 0.7562964879736076 0  1.40625 2.5 0  1.501347663534097 2.307027627307738 0  1.602813712048603 0.1926218191360736 0  0.8393082906308107 0.463778306132633 0  1.682663349152719 1.598471865581041 0  0.7774174680851571 1.560004941327907 0  1.554204170364662 0.3898593897892066 0  1.842184459051087 0.186443880058197 0  1.358107417651776 1.696381759610015 0  1.18859291992392 1.77598670078022 0  0.1875331222687418 0.7609599743339348 0  1.339536743965101 1.422080365801479 0  0.7788179348750389 0.9955343414928611 0  0.9062978492805438 0.1919636509126373 0  1.256007360640958 0.3160320559396114 0  1.09375 0 0  1.174986727221844 0.1594990293443933 0  2.34375 1.796875 0  2.318026474511116 1.589177949022232 0  2.34375 2.5 0  1.672742954892153 2.332882724550692 0  0.2683637361947215 1.874801596909639 0  2.174770749820102 0.5581009131310781 0  1.443279522965991 0.8870068372898454 0  0.3385416666666667 0.3571428571428572 0  0.78125 0 0  2.060421048269335 2.314363248763811 0  1.088078737088509 0.8967352118723447 0  1.087825368444708 1.454931510884769 0  2.018308232129541 0.8548495425854904 0  1.943987311736842 0.3246298523011434 0  1.71875 0 0  1.85337849796276 1.144833312386208 0  2.3486328125 2.1044921875 0  1.407588788651747 2.042968789119587 0  2.336309523809524 0.865366648092144 0  2.34375 0 0  2.5 0.15625 0  0.15625 2.5 0  0 2.34375 0  0.1638044648294291 1.242263417405867 0  0.356216654757926 1.032569427322806 0  0.3188217956111817 1.355736727000647 0  0.5924956460852111 0.36112522004736 0  0.6594216488965849 0.1603472116132387 0  1.841804599497131 1.72214349266521 0  0.15625 0 0  0 0.15625 0  2.115898634821499 1.894570904464496 0  0.7821877980253907 0.7129993435924866 0  1.003820447087786 0.4516053462784233 0  0.477562948779147 1.138333049293613 0  0.719493678605015 1.305655360135975 0  0.9772457618587566 2.020350128938537 0  0.8764738248887107 1.826219722709673 0  1.254787875123819 2.339010653832026 0  2.343597354852534 1.249982759769001 0  0.78125 2.5 0  0.46875 2.5 0  2.5 1.40625 0  1.09375 2.5 0  2.5 0.78125 0  2.5 1.09375 0  2.03125 0 0  2.5 0.46875 0  1.40625 0 0  0.46875 0 0  0 0.46875 0  0 1.40625 0  0 1.71875 0  0 2.03125 0  2.5 1.71875 0  2.5 2.03125 0  2.005424054645407 1.653223486966518 0  0.1538730573856537 1.559850281736677 0  2.33984375 2.33984375 0  1.166539506212474 1.922878979538754 0  0.3914885633949916 1.65887232812171 0  0.5795503163042564 1.766243562569382 0  0.399533125920212 1.946786875081388 0  0.7866324979014098 2.127719094551316 0  0.3654683023546834 0.1495701132219454 0  0.1527388747131078 0.6116379440619215 0  2.013737577140188 1.391056634712135 0  1.17635437372994 2.213329084238133 0  1.737118141866284 1.010577140843115 0  2.200707118087222 1.164723314085963 0  1.697018908736685 1.993548551451517 0  0.5387621649009668 0.6070503962352419 0  2.032805785855952 0.5330427622570983 0  1.082699501358059 1.667818725183932 0  1.503819781540653 0.5468420196858188 0  2.015409142866072 2.175941657590429 0  1.752057611265444 0.869642097111018 0  0.612251684107783 2.356045720700959 0  1.902817102342857 0.6607642211999982 0  2.159616561739693 0.7867739969338844 0  0.5120038350106624 2.197302352398502 0  1.888200216011548 1.919501662489862 0  1.495909909726654 2.16028358757309 0  0.489139876703609 1.443203008943564 0  0.8819175670410521 0.3301172743913011 0  1.882591144370812 0.8155965192707721 0  1.133979796994841 1.172526771862882 0  2.206217447916667 2.084147135416667 0  2.20361328125 2.36279296875 0  1.395746985657004 1.556054166359645 0  1.704383111516207 1.734750450338683 0  0.9575737847222222 2.36274223823052 0  1.035150984253136 0.1302833343179028 0  1.383966125325753 0.7651479963479179 0  1.64003252158672 0.6824316405528895 0  2.22550785055421 1.487078576356817 0  1.760964431499756 1.48495222505201 0  1.276460980673788 2.004207003584658 0  0.1341477688427096 1.828777507920502 0  1.542261434180652 1.155296658359034 0  1.334627911613854 0.9696897472490321 0  1.30794231473696 1.119420615785191 0  0.7028260459857245 0.4438906910721139 0  1.625757433094055 1.84268057552138 0  0.9818707849053143 1.165603626132254 0  2.0086489901463 1.243134585689553 0  1.934584460420609 2.374094051915812 0  1.798434376789567 2.38671361912528 0  1.206314791201715 1.382064292497919 0  0.6333752893366955 0.7023738550008095 0  0.7796219811205605 1.42573253164258 0  1.564399711917382 1.026040828857629 0  0.3385416666666666 0.4889012896825397 0  0.1041666666666667 0.390625 0  0.989112246382566 1.543537365516289 0  2.025724425454636 0.9846960595520872 0  0.6602885475034063 2.086117390485779 0  1.607130551925032 1.267198646640915 0  0.1317864544877056 0.8896173683400176 0  1.755387840017567 2.230364320056445 0  1.301540702984401 0.1216289692748247 0  1.433170657577442 0.3331052752740999 0  1.500459610550388 0.113513924782439 0  0.6494291520606965 1.029586599619295 0  1.010146149868299 0.794897284196169 0  0.3700844198238017 2.235390157870766 0  0.3360891767780704 2.36656279435396 0  1.876856241037701 1.437150669863757 0  1.778674102957329 1.245979347269706 0  0.5472829890977179 0.1005517127039925 0  0.4669074189005698 0.3416784232954367 0  1.472765289289269 1.850899166481903 0  1.555853593327178 1.608452097912802 0  0.6708955559113426 1.646561631116984 0  0.8164699620322933 0.5924479455478063 0  0.3167738989468366 1.758696809749795 0  0.2788007305565096 1.605499483471246 0  0.7821720982350511 0.181524936294752 0  1.376812251214195 2.313340247908297 0  1.785652202614777 0.5962261755537186 0  1.761467296310972 0.4679567244718574 0  2.2265625 1.8359375 0  2.3828125 1.9140625 0  0.5279531607054191 2.071552361614785 0  2.397573269551114 0.234375 0  2.383578172599618 0.3589298466020009 0  0.1024267304488855 2.265625 0  0.1164218274003825 2.141070153397999 0  0.2696857594953064 2.135405441512016 0  2.164961300137334 0.1375322943529536 0  2.137757548369486 0.2724194778647587 0  2.238873711826398 0.3626419179496562 0  0.1001414910226386 0.234375 0  0.2176339285714286 0.3478422619047619 0  0.2503620791333544 0.1061694061057066 0  2.336445461915368 0.1250451055247424 0  0.2154004640409726 2.3918124
[...]
<PointData  Scalars="f_49-2"> 
<DataArray  type="Float64"  Name="f_49-2"  format="ascii">1.0252743162438502e-15  4.8467273473839089e-16  1.9628785689255888e-16  7.1965562116800720e-15  3.8569965696682262e-16  2.0753602312854499e-16  1.0386780809389879e-15  8.9013921638079023e-16  6.8506080490023149e-15  5.9993931620845175e-16  4.5654627063897021e-16  1.0306542920211742e-15  1.0304897375535056e-15  1.9302624365024596e-16  2.8560262954245497e-16  3.5551311914539322e-16  4.4195529524265078e-15  3.1907915597296251e-16  1.0135874164032688e-15  4.8737378444254984e-16  1.4938650298669650e-15  2.4121840209197106e-15  5.1741371819801085e-15  1.8277494673406551e-15  7.9401673514230422e-15  9.6199420136115811e-16  3.7538132265334909e-16  1.0451279334695425e-15  2.5479084093745774e-16  2.5444189291615145e-16  1.0424701730021951e-15  4.0147592484344534e-16  9.8114673469037089e-16  6.0285179063786393e-15  4.3084919467200982e-16  4.0429431888237007e-15  3.1161901606497672e-16  7.2535045491019221e-15  6.4756245870910802e-15  6.4370199038350988e-16  4.1323506964519663e-16  2.7072091455960950e-16  4.7406699221705687e-16  4.4626783393361886e-16  2.2696396566751513e-15  9.9987371607394216e-15  8.7187618855279885e-16  8.9150075805142672e-15  9.8330481336778236e-15  3.3352705144629197e-16  4.2491284836407146e-16  1.0252008466400945e-15  2.3257455251840020e-16  1.9602421012774657e-16  7.8181798753875705e-16  9.7711956052477401e-16  1.0331226871542166e-15  1.9092753848926582e-16  1.0435046064229872e-15  1.3025549107385932e-15  2.1488578020043725e-16  4.4618469495013485e-16  1.1813817902314521e-15  1.3310800051296423e-15  9.1142055814379580e-15  1.0152054523320184e-15  9.8735733639849184e-16  2.6674153521172991e-16  1.0442763554383477e-15  3.0171743409361121e-16  5.8638374219273127e-16  3.5931483571573279e-16  1.0029315259772171e-15  4.5996196030039694e-15  4.6258980278643069e-16  1.1183785705862076e-15  1.7778036405296187e-15  7.7149920083414215e-15  9.7249021717839091e-15  3.6407883955079889e-16  4.4520052914370413e-16  4.0547131570058581e-16  3.6251699104339745e-16  3.4685378090410645e-16  2.8957051785038642e-16  2.1798648571648293e-16  2.2544124948035222e-16  1.0335426922196017e-15  1.0408044359456230e-15  1.0420003008793860e-15  2.6374438681474959e-16  2.2828278387941083e-16  3.9945667069580935e-15  2.2867177973814827e-16  1.0452909883406130e-15  1.4448346987703672e-15  9.3426835991114507e-16  2.3692257828691828e-16  1.1215134790141482e-15  1.0401208604318831e-15  1.1010919689973484e-14  9.0466689371467833e-15  1.0350062300071016e-15  2.3145447857248613e-15  3.3522495643154988e-16  4.9669317383705298e-15  6.9559066059439102e-16  2.7097607351231056e-15  3.6569288617573679e-16  2.3232952890830649e-15  9.8707404222202252e-16  8.4175424407924485e-16  8.0651503034833420e-16  7.9299898362419181e-15  3.0240354511775762e-15  4.3990456153377612e-16  2.6066984806631321e-15  2.7617684512200036e-16  1.1060890614446521e-14  1.1287084699959857e-15  9.1836306974463925e-16  1.0422921396578014e-15  7.9751989038662429e-15  1.0759803325247191e-14  3.8579769157828303e-16  4.6910444954459003e-15  7.9525259105931554e-15  1.0674775766895639e-15  1.7026775942399224e-15  3.3034449106436273e-16  4.3647399589782019e-16  5.4910494241854404e-15  1.0917724468296183e-15  3.4696505784029369e-16  2.9003900192175860e-16  1.0113648589913164e-14  3.6411495738515145e-15  7.0207776746751803e-16  9.0263696409043636e-15  9.7680782733506183e-15  4.2980202066992167e-16  3.9059352389141486e-16  4.0696524860946113e-16  4.0136429287718476e-16  4.5764192800228058e-16  2.6769511509388439e-16  9.4736958499172549e-15  3.5976669509065445e-15  1.0266994869034811e-15  2.4160886152868321e-16  3.7926674537050355e-16  1.3734861703727648e-15  4.4044256681364348e-16  1.0595113664283975e-14  1.3348369376506651e-15  8.9796531862877761e-15  2.8025183780724573e-16  2.7722555108380193e-16  3.1086104348401764e-16  3.1507388854464269e-16  2.9875517638311431e-15  3.4216993488131865e-15  2.2099116989808788e-16  2.1622835218729730e-16  1.9480657695231279e-16  1.0248278027902688e-15  1.0352674936785576e-15  8.9079655844266731e-16  8.2900520939534237e-16  9.2205454403196949e-16  4.5365006352396943e-16  4.5327143856365449e-16  4.9018856656004332e-15  4.8162178346675860e-16  4.8351172517004905e-16  3.0779558785931525e-15  2.0293215145722726e-15  4.2095954166527332e-16  9.6928716392099441e-16  2.0297670922714820e-15  1.0468137510701443e-15  1.0412368255131589e-15  1.0657967354477134e-15  2.3372130706657087e-16  1.0319649204167639e-15  1.0270355731205922e-15  2.1144491515244798e-16  1.0347868781738929e-15  1.9683791424005328e-16  2.0186395205741861e-16  2.6338086628041181e-16  1.9169094790661240e-16  3.5338120674644892e-16  4.6668500549804211e-16  5.1876602334681090e-16  9.3374279988245001e-16  1.0065078524589116e-15  1.0400726477354137e-15  2.3759237617969543e-16  8.5225556688519837e-16  1.1374864153928233e-15  9.7471080648956726e-16  7.5821334720680543e-15  1.6553959385451711e-15  9.8939548904798559e-16  1.0114138156725224e-15  1.0331673885042401e-15  1.0430280300655745e-15  4.7007159019789096e-16  6.4882492939648755e-16  3.3309124295479707e-16  1.0713829655001182e-15  3.2862309221450334e-16  2.5391627381269514e-16  1.0950669727717460e-14  4.9853662487595800e-15  2.6780672384648731e-16  3.3775624100308996e-15  3.5764171328483088e-16  1.0448109440227224e-14  3.2403335745204514e-16  1.0401772420706638e-15  2.9287571367089872e-16  2.5119650382332759e-16  1.0440318211564068e-15  8.5337966107134385e-15  3.1169821643510298e-15  9.4587308637408857e-16  4.3261582691349181e-16  2.9898364113476124e-16  7.5738568829718324e-15  5.3261489946901892e-15  9.9789528763723581e-15  1.0628705986641320e-14  8.5623357225887175e-15  1.0419831399890272e-15  4.1668862835836554e-16  3.7810395966161821e-16  3.3817775061226257e-16  2.7472396923630862e-16  1.7995178952268473e-15  1.9609246889022530e-15  1.0205640947457647e-15  6.2192740466812376e-16  5.3630849352872048e-16  2.0813866972265338e-15  4.6637863991845530e-16  1.1189522969721993e-14  1.0376572914849184e-14  2.9437619815554347e-16  8.2275762692468297e-15  4.8183754806668281e-15  1.0665475691879143e-14  6.0433188462742320e-15  1.5869486952598099e-15  3.7914060113663578e-16  5.8957213297258030e-15  1.4104420648837703e-15  3.5280948641798056e-15  2.7811210113076236e-16  1.0418190920719605e-15  9.4245460129848312e-16  7.4746219943817644e-16  7.0104245165368099e-15  3.7890235179656201e-16  3.6539752006824789e-16  3.4500399171797902e-16  5.8057482536727554e-15  9.8208734199300662e-16  1.0433418459641708e-15  1.0376153139035200e-15  5.9850046048137000e-16  4.0006214973950826e-16  4.6090863529891880e-16  4.8636615560186661e-16  9.6514112941064140e-15  8.6972804021383455e-15  9.9716884348996443e-16  5.9174078560325267e-16  1.0099833242841161e-15  9.8057963309151544e-16  4.4291228281926405e-16  1.2034853987680507e-15  3.1425843942971681e-16  3.1135140279320324e-16  1.0906955981358887e-15  6.9972379390489024e-16  1.0410137760838811e-15  2.0214841771347166e-16  2.0943802081496004e-16  1.0414894615824086e-15  1.0432560346434968e-15  1.0434629579930340e-15  2.4224736162245828e-16  2.4823199538081257e-16  2.3506740767621670e-16  3.9989584221892921e-16  3.4783170751484327e-15  4.7579403690861213e-16  2.1188562082923668e-16  1.0346923382444686e-15  1.0481061054458941e-15  4.7716016617750735e-16  3.1332642297902514e-16  4.1580637653612607e-16  4.0217638501066453e-16  3.8785593776015454e-16  1.0368989624240721e-15  3.3908797588550939e-15  7.2669495761853309e-15  1.0350499165669011e-15  2.7741178324563540e-16  2.1311103942226451e-16  2.1171720721511625e-16  4.6370081121197027e-15  8.3177857811338761e-16  1.0272862180044600e-15  1.0267851956103899e-15  3.5450981211517639e-16  3.5964970165417707e-16  2.9148986764144725e-15  2.9521625944214579e-16  3.7478545030550732e-15  1.0386310085172857e-15  1.2937500101567959e-15  2.4713620485390873e-16  4.3496186940111285e-16  2.4964919343612213e-16  1.2449671278033988e-15  8.5814294216918353e-16  2.1653896860619988e-16  6.5231424077226788e-16  1.1875172751674692e-15  1.3649458006436708e-15  6.1859673120598297e-15  2.7436694140527866e-16  1.0425893273564519e-15  9.4895809701307767e-16  9.1185436566206179e-16  2.2403485047148760e-16  2.4994807258056829e-16  1.0145199681627670e-14  3.2374682645180188e-16  3.3685762462554296e-16  1.0964734623228084e-14  2.9871705380005765e-16  2.4560240938801867e-16  7.7317272680035938e-15  1.4560244726580094e-15  1.0383158634607529e-15  7.9275073014000386e-15  1.2580996399094931e-15  6.8820236501311851e-15  3.9190940972820022e-15  3.3077684496149338e-16  9.9246384029203064e-16  8.6807221607395673e-16  2.2174197732078500e-16  2.1616077239208295e-16  1.0654823697907955e-15  1.0323337829115042e-15  7.3401909324490649e-15  6.7739727004096152e-16  2.8719818065579826e-16  3.7314319090258349e-16  1.0073031464394271e-14  3.4783432468490616e-16  9.9844757799839949e-15  1.0414656873201546e-15  1.0417420364700288e-15  5.8897110171628647e-15  9.5233366461680526e-16  4.5446144455634150e-16  8.5290654992235672e-15  1.1040775668797589e-14  7.0469442128550155e-15  8.8932758072443743e-16  1.2302997759005377e-15  7.8514582360174360e-15  1.1056608695772168e-15  5.4792270635736348e-15  3.3938015372230473e-15  2.8458737942451757e-16  3.7905583075710587e-15  1.9482076466035765e-15  6.1513349090278469e-15  1.1346130830417015e-15  1.0491276980220784e-15  2.3532047930069207e-16  1.7793368246680935e-15  3.8973753707564085e-16  4.5510944354701338e-16  1.0447280649569220e-15  7.5741803517476883e-16  7.2618531990069800e-15  4.0735960351433460e-15  6.2474675691410671e-15  3.2823008796365107e-16  3.5996240621694244e-16  8.4593991647257804e-15  5.3637043576533322e-16  8.0148052177373872e-16  2.9290788682887392e-16  2.6664376329885350e-16  1.1086447847029272e-14  2.6990487616273361e-16  1.8660180995641412e-15  9.7779909243052285e-16  8.0937320646740311e-15  2.0537610904202951e-16  4.0060625506615348e-16  4.0310486278703063e-16  5.0620100658686198e-16  2.3921601057404397e-16  9.9963705475062622e-16  9.7214574578267723e-16  5.7975990704453419e-16  8.0019438391081637e-15  1.9310268128112403e-15  1.0277665824044638e-15  9.6248452091508302e-15  5.8061727175833338e-15  6.5652145202473781e-15  3.3475214739600318e-15  9.5155827198158343e-16  8.8501833685805767e-16  1.0216833813830170e-15  5.1098809606811742e-15  1.0716582624269865e-14  9.6396395530506694e-15  4.4767786026058472e-16  1.0536624136854758e-14  1.0383315916440888e-15  1.0432057295622643e-15  2.6228146524890369e-16  3.8874407823560435e-16  1.0363554214587856e-15  3.6241952155321616e-16  5.0360968228751532e-15  4.4549220419043432e-16  2.2781730622348418e-16  1.0084077997631740e-15  3.5363667063170547e-15  2.9815171154643560e-16  9.6605886185085114e-15  9.6956344371063250e-15  8.9628413731827367e-15  3.7158743186857878e-16  4.2434162715231711e-16  2.2387816414834255e-16  5.7527781569487948e-15  8.3884303817192538e-16  1.6982427591501667e-15  1.4950194948670985e-15  2.3912851301656320e-16  1.0331607978484182e-15  5.1202071641943436e-16  5.0452988322937610e-15  1.0776585065250789e-14  7.0222960890918162e-16  1.0498328930140935e-14  3.4742515105055155e-16  8.9943244010568079e-16  2.4721882572366043e-16  2.5751172791397848e-16  9.2767705080566291e-16  1.0446539221366923e-15  1.3116520880433734e-15  3.4624784469647043e-16  1.1106912348788121e-15  2.7507656698622249e-16  4.4167358209851642e-16  4.4131012727786702e-16  4.0194936095814441e-16  3.7927118494730560e-16  3.7774208149142479e-16  6.2962293206184917e-15  3.4166626447339587e-15  1.0459951125778297e-14  4.6628721708436293e-16  1.0265095852804200e-15  1.0340071899439522e-14  9.9180761530560278e-15  1.0427981039965398e-15  1.1605140774104075e-15  1.5990435269779748e-15  5.0334036478338623e-16  4.1094618868634435e-16  3.5818957839715337e-15  1.0434837082680441e-15  1.0091491357870767e-15  3.6124182234340430e-16  7.1056313278404552e-16  3.6728159397493958e-16  1.9629720210938898e-16  2.4616266184606878e-16  3.1157660373680995e-16  9.9446244298699218e-15  1.0305340965087717e-15  6.9136699676021533e-15  2.7588959320528544e-16  4.0330930571506284e-16  4.0339575682738629e-15  4.6932406571282838e-16  1.9131976587904821e-16  2.0604799882629858e-16  1.0400649928059109e-15  4.2498055642098827e-16  1.0215576591574358e-15  1.0164651877542860e-15  3.1628555306787160e-16  9.3285481060145367e-15  4.2084349571795420e-16  1.8061855236136916e-15  4.2330232004872185e-16  1.1164671864591391e-15  2.9195294530678357e-16  1.0189002180594462e-15  1.0359124274456257e-15  1.0345276712683555e-15  1.0358470130144982e-15  4.0805025055124836e-16  4.3820770135423549e-16  3.4187960836952708e-15  2.2654998792348953e-16  1.0444480510858471e-15  1.0280673253988034e-15  3.3244064660032210e-16  3.1478776054116202e-16  2.3070614736407183e-15  1.0404513264053903e-15  1.4950485708398605e-15  2.5632164039449365e-16  3.9116362121634652e-16  1.9503726226430481e-16  2.6993535759439559e-16  2.6776888865368670e-16  2.8944999252430569e-16  3.9024204962767361e-16  9.3140368993938554e-16  2.8068436478682179e-16  1.9637848778841139e-16  1.0637363520157326e-15  2.5044562817823776e-16  8.3967467212244096e-16  8.5565555209261201e-16  3.4596555719304943e-16  4.5223161513923115e-15  3.1187942816246294e-15  5.3489804538064544e-16  2.6595070355050858e-15  5.2740105818876871e-15  4.1255951886579870e-16  4.2048702306900000e-16  2.1945711383000213e-16  1.0437829994498893e-15  1.0990935473228254e-15  4.2961360114214811e-16  2.6192767636837927e-15  1.0447388668183598e-15  2.2687936575258210e-16  7.2620616333750939e-16  4.6583423500057479e-15  1.2518811546670906e-15  1.6993325688195070e-15  2.0267569088265534e-16  3.0004166421689961e-15  7.4817726194715953e-16  2.0654317852530416e-16  1.0390164023981004e-15  3.4755159159604839e-16  3.2763268180364474e-16  2.5622593061772626e-15  5.2987886635545454e-15  9.3747003051535208e-15  7.0526545834610411e-15  1.4418277726145414e-15  7.5400612490242758e-16  9.6849714658243701e-16  7.7662667461287768e-15  2.4655024018837687e-16  2.0803424002638281e-16  1.0241352716624131e-15  1.1183542010594497e-14  4.5855401852144224e-16  3.4899253712069242e-16  5.1305111401826460e-16  8.3238740541864384e-15  7.8978566290688839e-16  1.1151039647461053e-15  1.0341765975690712e-14  9.0253922402575127e-16  1.3123480012493390e-15  4.1251641962170008e-16  2.5467889806759842e-16  3.0156379257801624e-16  4.6122124797072642e-16  9.2274183561483991e-16  4.4705523421470532e-16  4.5663864864110565e-16  4.5013857555933927e-16  6.3789804025982586e-16  4.5432960813325543e-16  2.1404637629366975e-16  1.9956299653729408e-16  1.0852615198229435e-14  5.9749440666537854e-15  8.3537689145040720e-16  9.4330088141221485e-16  2.4505734616285880e-15  8.0210099172743260e-15  2.3862781030283768e-16  4.1924915335555482e-16  2.1561238608228554e-15  2.3085957540741835e-16  3.4232649178076398e-15  3.6919271465615586e-15  1.0294936798247354e-14  7.0886648452964175e-16  2.8178049791090108e-15  3.6780132614423603e-16  1.1271495815629292e-15  1.0503581257902048e-15  4.8290709101141821e-16  4.8550105199432557e-16  5.4044631588976328e-15  3.7189518609402471e-16  6.7709977944950858e-15  4.7261821001954778e-16  1.0429867936037805e-15  2.0042968062297945e-16  2.2257772142537247e-15  5.3322340977415823e-15  3.3486247002812711e-16  6.2136629060040505e-16  1.2772653815271268e-15  4.1378416900210030e-16  5.9685606950051031e-15  4.7413835047011964e-16  2.2936428288718320e-16  2.6276607657976584e-16  4.2098437904290099e-16  2.6295886283507019e-16  6.8307387316215609e-15  9.9866480226346288e-16  1.0441316336604865e-15  1.0395730884312263e-15  1.0851159207109853e-15  9.8486611930172004e-15  3.1090996932782845e-16  6.5650508996490534e-15  1.0364502689261116e-14  7.8086719656457745e-15  4.6045531458885994e-16  2.3477751165118482e-16  2.2042403576138313e-16  1.0434805535936861e-15  8.8917788965530878e-16  1.1079226367851747e-15  2.2763166722621158e-16  3.9413120547812148e-16  1.0156604875020141e-14  1.0323719023969936e-15  9.2552398798849747e-15  1.0314391644198321e-15  1.0255320742681494e-15  1.0458216970999394e-15  9.9277609869615023e-16  1.0317870650343715e-15  2.2347337032313093e-16  2.9524986697160671e-16  3.2138506963729663e-16  2.0426793841699621e-16  2.1023394522143490e-16  2.1278836973715556e-16  8.1549221216803891e-16  8.6834490766750567e-16  9.1238731276129372e-16  1.0360146377333060e-15  6.3811386922135368e-16  4.3256798094326910e-16  2.7483653601123426e-16  1.0356980435689247e-15  1.0243248494024491e-15  4.7886761015230219e-16  1.0398882409868811e-15  1.9210298518649881e-16  4.6269180815363457e-16  3.4564649180354414e-16  4.7239047301641584e-16  4.6061981098111056e-16  3.3927929518868120e-15  3.3950011530114106e-15  6.1310566536798149e-15  8.4155494195738890e-15  9.6068893818728819e-16  1.1316830181049164e-15  5.6181094544152651e-16  2.6913791877300136e-16  1.3615133730976535e-15  1.9102712127988863e-16  2.9729752187132492e-16  1.1404341486713594e-15  2.6488409807313250e-15  1.0370466656670333e-15  3.6292621803204482e-16  1.0484589931891872e-15  1.6316640321707908e-15  8.1879591081140379e-15  3.5371007794224502e-15  5.8509098015279519e-16  4.6770090855594349e-16  8.5763001293762336e-15  5.7408090966068843e-16  1.0386930904257212e-15  4.2225118981561194e-15  4.1347067850775060e-16  1.0439009369789437e-15  9.5020541843914201e-16  9.7496886153360294e-16  9.8604755293339463e-16  9.1444140734481200e-16  6.4936132818916390e-16  1.3907681442888696e-15  2.4486543065988314e-16  1.0579397683689408e-14  1.0723748316697358e-15  2.5906965635680284e-16  8.7377599857083902e-15  2.2368044286001032e-16  9.6540795482253866e-16  1.0726497491399221e-15  9.2726549955584398e-15  8.7432429532737894e-16  9.2257997406903332e-15  1.0386963013551881e-15  3.6574320828522649e-16  8.0445543007643306e-15  1.0231224841115438e-14  2.8302348868539365e-16  2.3202279512492605e-16  5.2720015739239947e-15  2.5544496562211061e-16  2.3968020407409250e-16  1.9144340160395600e-15  3.4667899854427763e-16  6.7688854813326234e-16  5.5218111365684532e-16  6.6995853751017454e-16  3.3133725925408609e-16  9.9579214050039021e-16  1.0069087985145511e-15  5.1246740236098123e-15  3.8590643801051113e-16  3.2014448250745976e-16  3.3447931712965247e-16  2.9325626137449185e-16  1.0436046900519869e-15  9.3388393830347414e-16  1.3658448136839010e-15  1.0116694476190360e-15  3.9094388189034457e-16  1.0246445223059000e-15  1.0294734111758231e-15  1.2844687654698392e-15  4.1560761147301467e-16  3.0946869613299765e-16  2.9654792194286258e-16  1.0414689030091314e-15  1.2719286677916770e-15  9.7754084716839537e-16  9.8494662310437570e-16  1.0030349915905670e-15  2.2374915499776051e-15  2.4331395630900273e-16  1.0512764599655554e-15  1.0684093877123153e-15  1.0441105372460519e-15  1.0439453999918753e-15  1.0432546357338849e-15  2.7332443201558874e-15  3.9166298807422470e-15  3.5901966857717480e-16  2.9058577516630808e-16  2.1003390986558579e-16  2.6189429312231488e-16  1.9844229557205872e-15  1.1274605095986496e-15  8.8032745904330027e-16  1.5199048508854619e-15  2.6722447613042941e-16  2.5385579285768460e-15  3.7509092606426041e-16  4.8648092447642004e-15  4.6702278161951280e-15  2.8416708969413202e-16  9.1075829933229218e-15  1.0853180557307537e-14  8.9962206108219177e-16  2.5686034603951661e-16  1.0318316867161818e-15  9.4613480717108758e-16  1.1082874261377250e-14  2.9992478209240089e-15  9.0800994023010003e-16  9.7612686193152825e-15  1.1138952086714591e-14  1.0207568178204596e-15  2.1962699361664031e-16  3.9892788833924002e-16  6.3259394346638385e-15  9.5274103277002057e-16  9.3028192580100330e-16  1.0429378364161331e-15  1.0361781372802418e-15  2.7795037415509259e-16  1.0318759687222828e-15  2.8064972021006881e-16  2.1888663356125365e-16  1.0485424836224097e-14  1.0430629003675306e-15  3.3587853316082031e-16  8.7783114491838108e-15  2.5512109540333338e-16  6.1458969152249757e-15  1.0416357410067582e-15  1.0436003824583564e-15  1.0436776520016324e-15  1.0410230013664946e-15  5.5444995611553