<?xml version="1.0"?>
<VTKFile type="UnstructuredGrid"  version="0.1"  >
<UnstructuredGrid>
<Piece  NumberOfPoints="6486" NumberOfCells="12696">
<Points>
<DataArray  type="Float64"  NumberOfComponents="3"  format="ascii">0 2.5 0  0 0 0  2.5 0 0  2.5 2.5 0  1.25 0 0  2.5 1.25 0  1.25 2.5 0  0 1.25 0  1.25 1.25 0  0 0.625 0  0.625 0 0  0.625 2.5 0  0 1.875 0  2.5 0.625 0  1.875 0 0  2.5 1.875 0  1.875 2.5 0  1.770833333333333 0.7291666666666666 0  0.7291666666666666 1.770833333333333 0  0.9375 0.625 0  1.875 1.5625 0  0.642361111111111 1.163194444444444 0  1.341594827586207 1.883979885057471 0  0.46875 0.46875 0  2.03125 2.03125 0  0.3626104797979798 1.513178661616162 0  1.381740196078431 0.4564950980392157 0  0.9375 2.172619047619047 0  2.172619047619047 0.9375 0  2.096354166666667 0.4036458333333332 0  0.4036458333333333 2.096354166666667 0  1.684027777777778 1.163194444444444 0  0.3418803418803419 0.8693910256410255 0  1.642742622813391 2.162164207604464 0  1.275619849389031 0.8465650753054845 0  0.9136284722222221 1.434461805555556 0  1.732437511238546 0.3406962303960658 0  0.9714402568595876 1.029779313093998 0  1.52281746031746 1.485615079365079 0  2.1875 1.71875 0  1.06819722569879 0.2997236128493951 0  2.136114211309524 1.303478422619048 0  0.3125 0 0  0 0.3125 0  2.5 2.1875 0  2.1875 2.5 0  0.3200021620376328 1.192323085056694 0  0.6738456129277992 0.8304377375553881 0  1.757891808928991 1.861952730357003 0  1.5625 0 0  0.9375 0 0  0.3125 2.5 0  2.1875 0 0  2.5 0.9375 0  0 0.9375 0  0 1.5625 0  0.9375 2.5 0  2.5 0.3125 0  0 2.1875 0  1.5625 2.5 0  2.5 1.5625 0  0.7448220909826522 0.3003573636608841 0  1.027298850574712 1.871151477832512 0  1.331260495098891 2.197262878816185 0  1.207917681892289 1.582765010956622 0  0.4339993447432606 1.801186844743261 0  0.6337298768939392 1.443093039772727 0  2.049851190476191 0.6826636904761904 0  0.6584821428571428 2.219122023809524 0  1.89575676467455 0.9798457973793544 0  1.437570562095628 1.059380588255917 0  1.502090052505845 0.6987070896496241 0  0.2040860661083546 1.705323965099331 0  0.2083333333333333 0.46875 0  0.5070952039991439 0.2211150679997147 0  0.6916302856529919 0.5813591430410241 0  2.265625 1.953125 0  2.2265625 2.2265625 0  1.886424081252096 2.243391360417365 0  1.40625 0.202164758520858 0  0.2269345238095238 0.2269345238095238 0  1.152730869673694 0.5225850378741401 0  1.885631899587912 1.312095130148776 0  1.614808884009367 0.9049784971014416 0  1.890095442220658 0.5126535558463003 0  2.323168682795699 0.46875 0  2.268811725689575 0.2304742875213018 0  0.6002389442105756 1.967426444210576 0  0.1768313172043011 2.03125 0  0.2311882743104251 2.269525712478698 0  2.03125 0.176831317204301 0  2.280262553344767 0.6954945504579233 0  1.979219539285994 1.809922269642997 0  2.336309523809524 1.09375 0  1.09375 2.336309523809524 0  0.9314042474388009 1.662973812215543 0  0.1634067999087722 1.40625 0  2.337090640094896 1.40625 0  1.141616997467638 2.069311773587991 0  0.46875 2.338939559681489 0  1.542440307908715 1.734944797244472 0  1.556713687786879 1.956977865354753 0  0.8264238995344066 1.975424467820646 0  1.466326331454725 1.275271369760862 0  1.655675324257095 0.5444159974393489 0  0.3385416666666666 0.6479255698005697 0  0 0.78125 0  0.5236073939200119 0.984090461540625 0  2.091665741047893 1.519793517904215 0  1.71875 2.5 0  0.5356538886262603 1.623137930505009 0  0 1.09375 0  0.1932884281517095 1.015625 0  0.8569313582417669 1.2198915584249 0  0.8876981284879677 0.8329884081524883 0  1.115618488474214 0.7219586973356271 0  1.186950366204949 1.043465130075318 0  2.057459118787237 1.110823087309335 0  1.830651283878689 2.049810069572418 0  1.689107969301489 1.367247437031697 0  0.4921048768039656 1.298643370653124 0  0.8213975694444444 2.336309523809524 0  2.03125 2.5 0  1.049729400480002 1.283723261332814 0  1.308101375801673 0.6489479469700392 0  2.5 2.34375 0  0.4968777175037714 0.7562964879736076 0  1.40625 2.5 0  1.501347663534097 2.307027627307738 0  1.602813712048603 0.1926218191360736 0  0.8393082906308107 0.463778306132633 0  1.682663349152719 1.598471865581041 0  0.7774174680851571 1.560004941327907 0  1.554204170364662 0.3898593897892066 0  1.842184459051087 0.186443880058197 0  1.358107417651776 1.696381759610015 0  1.18859291992392 1.77598670078022 0  0.1875331222687418 0.7609599743339348 0  1.339536743965101 1.422080365801479 0  0.7788179348750389 0.9955343414928611 0  0.9062978492805438 0.1919636509126373 0  1.256007360640958 0.3160320559396114 0  1.09375 0 0  1.174986727221844 0.1594990293443933 0  2.34375 1.796875 0  2.318026474511116 1.589177949022232 0  2.34375 2.5 0  1.672742954892153 2.332882724550692 0  0.2683637361947215 1.874801596909639 0  2.174770749820102 0.5581009131310781 0  1.443279522965991 0.8870068372898454 0  0.3385416666666667 0.3571428571428572 0  0.78125 0 0  2.060421048269335 2.314363248763811 0  1.088078737088509 0.8967352118723447 0  1.087825368444708 1.454931510884769 0  2.018308232129541 0.8548495425854904 0  1.943987311736842 0.3246298523011434 0  1.71875 0 0  1.85337849796276 1.144833312386208 0  2.3486328125 2.1044921875 0  1.407588788651747 2.042968789119587 0  2.336309523809524 0.865366648092144 0  2.34375 0 0  2.5 0.15625 0  0.15625 2.5 0  0 2.34375 0  0.1638044648294291 1.242263417405867 0  0.356216654757926 1.032569427322806 0  0.3188217956111817 1.355736727000647 0  0.5924956460852111 0.36112522004736 0  0.6594216488965849 0.1603472116132387 0  1.841804599497131 1.72214349266521 0  0.15625 0 0  0 0.15625 0  2.115898634821499 1.894570904464496 0  0.7821877980253907 0.7129993435924866 0  1.003820447087786 0.4516053462784233 0  0.477562948779147 1.138333049293613 0  0.719493678605015 1.305655360135975 0  0.9772457618587566 2.020350128938537 0  0.8764738248887107 1.826219722709673 0  1.254787875123819 2.339010653832026 0  2.343597354852534 1.249982759769001 0  0.78125 2.5 0  0.46875 2.5 0  2.5 1.40625 0  1.09375 2.5 0  2.5 0.78125 0  2.5 1.09375 0  2.03125 0 0  2.5 0.46875 0  1.40625 0 0  0.46875 0 0  0 0.46875 0  0 1.40625 0  0 1.71875 0  0 2.03125 0  2.5 1.71875 0  2.5 2.03125 0  2.005424054645407 1.653223486966518 0  0.1538730573856537 1.559850281736677 0  2.33984375 2.33984375 0  1.166539506212474 1.922878979538754 0  0.3914885633949916 1.65887232812171 0  0.5795503163042564 1.766243562569382 0  0.399533125920212 1.946786875081388 0  0.7866324979014098 2.127719094551316 0  0.3654683023546834 0.1495701132219454 0  0.1527388747131078 0.6116379440619215 0  2.013737577140188 1.391056634712135 0  1.17635437372994 2.213329084238133 0  1.737118141866284 1.010577140843115 0  2.200707118087222 1.164723314085963 0  1.697018908736685 1.993548551451517 0  0.5387621649009668 0.6070503962352419 0  2.032805785855952 0.5330427622570983 0  1.082699501358059 1.667818725183932 0  1.503819781540653 0.5468420196858188 0  2.015409142866072 2.175941657590429 0  1.752057611265444 0.869642097111018 0  0.612251684107783 2.356045720700959 0  1.902817102342857 0.6607642211999982 0  2.159616561739693 0.7867739969338844 0  0.5120038350106624 2.197302352398502 0  1.888200216011548 1.919501662489862 0  1.495909909726654 2.16028358757309 0  0.489139876703609 1.443203008943564 0  0.8819175670410521 0.3301172743913011 0  1.882591144370812 0.8155965192707721 0  1.133979796994841 1.172526771862882 0  2.206217447916667 2.084147135416667 0  2.20361328125 2.36279296875 0  1.395746985657004 1.556054166359645 0  1.704383111516207 1.734750450338683 0  0.9575737847222222 2.36274223823052 0  1.035150984253136 0.1302833343179028 0  1.383966125325753 0.7651479963479179 0  1.64003252158672 0.6824316405528895 0  2.22550785055421 1.487078576356817 0  1.760964431499756 1.48495222505201 0  1.276460980673788 2.004207003584658 0  0.1341477688427096 1.828777507920502 0  1.542261434180652 1.155296658359034 0  1.334627911613854 0.9696897472490321 0  1.30794231473696 1.119420615785191 0  0.7028260459857245 0.4438906910721139 0  1.625757433094055 1.84268057552138 0  0.9818707849053143 1.165603626132254 0  2.0086489901463 1.243134585689553 0  1.934584460420609 2.374094051915812 0  1.798434376789567 2.38671361912528 0  1.206314791201715 1.382064292497919 0  0.6333752893366955 0.7023738550008095 0  0.7796219811205605 1.42573253164258 0  1.564399711917382 1.026040828857629 0  0.3385416666666666 0.4889012896825397 0  0.1041666666666667 0.390625 0  0.989112246382566 1.543537365516289 0  2.025724425454636 0.9846960595520872 0  0.6602885475034063 2.086117390485779 0  1.607130551925032 1.267198646640915 0  0.1317864544877056 0.8896173683400176 0  1.755387840017567 2.230364320056445 0  1.301540702984401 0.1216289692748247 0  1.433170657577442 0.3331052752740999 0  1.500459610550388 0.113513924782439 0  0.6494291520606965 1.029586599619295 0  1.010146149868299 0.794897284196169 0  0.3700844198238017 2.235390157870766 0  0.3360891767780704 2.36656279435396 0  1.876856241037701 1.437150669863757 0  1.778674102957329 1.245979347269706 0  0.5472829890977179 0.1005517127039925 0  0.4669074189005698 0.3416784232954367 0  1.472765289289269 1.850899166481903 0  1.555853593327178 1.608452097912802 0  0.6708955559113426 1.646561631116984 0  0.8164699620322933 0.5924479455478063 0  0.3167738989468366 1.758696809749795 0  0.2788007305565096 1.605499483471246 0  0.7821720982350511 0.181524936294752 0  1.376812251214195 2.313340247908297 0  1.785652202614777 0.5962261755537186 0  1.761467296310972 0.4679567244718574 0  2.2265625 1.8359375 0  2.3828125 1.9140625 0  0.5279531607054191 2.071552361614785 0  2.397573269551114 0.234375 0  2.383578172599618 0.3589298466020009 0  0.1024267304488855 2.265625 0  0.1164218274003825 2.141070153397999 0  0.2696857594953064 2.135405441512016 0  2.164961300137334 0.1375322943529536 0  2.137757548369486 0.2724194778647587 0  2.238873711826398 0.3626419179496562 0  0.1001414910226386 0.234375 0  0.2176339285714286 0.3478422619047619 0  0.2503620791333544 0.1061694061057066 0  2.336445461915368 0.1250451055247424 0  0.2154004640409726 2.3918124
[...]
<PointData  Scalars="f_49-2"> 
<DataArray  type="Float64"  Name="f_49-2"  format="ascii">7.2943715708642211e-16  3.2817837405856426e-16  9.6647416500022413e-17  4.9010342546063788e-15  2.4427604008978304e-16  1.0479041832402201e-16  7.4690944590610451e-16  6.7091812038625382e-16  5.4577373048475328e-15  4.2843950536714662e-16  3.0388806837144246e-16  7.3715196759084384e-16  7.6813026274563193e-16  9.4303672834304082e-17  1.6373319733418727e-16  2.1071318802959087e-16  3.3386770259650678e-15  1.9013806264716654e-16  7.6098876952315369e-16  3.2822745580972684e-16  1.0894911132864070e-15  1.9657897221155392e-15  4.1327840686951832e-15  1.4531544819702230e-15  5.8700450235280906e-15  7.2583767475556139e-16  2.3576556176616184e-16  7.7032549294689075e-16  1.3998953641887906e-16  1.3969995848188323e-16  7.6954800973719002e-16  2.5528246093465490e-16  7.5589310684018242e-16  4.7034829102470609e-15  2.8088898389045156e-16  3.3072978775606057e-15  1.8421495881374271e-16  5.8972834775185635e-15  5.0431988217796282e-15  4.2925933067718031e-16  2.6720695883601888e-16  1.5215768837498932e-16  3.1896490510093166e-16  2.9451013321828882e-16  1.5435527816550595e-15  7.2844455879140840e-15  6.5638167261210761e-16  7.4405675111751264e-15  7.5322666685060326e-15  2.0172414799476106e-16  2.7702020210465415e-16  7.2926561905970533e-16  1.2323480461108857e-16  9.6454909144680606e-17  5.8278836954784065e-16  7.3639422893086229e-16  7.4061838331602699e-16  9.2820875871281204e-17  7.6396124269055859e-16  9.5305137826195042e-16  1.1011030560517448e-16  2.9503599594244058e-16  8.9506063995257889e-16  9.9806669376690871e-16  7.4040782057772841e-15  7.6114314918028438e-16  7.4897742931886886e-16  1.4912833259205768e-16  7.6517049955034956e-16  1.7636759662679999e-16  4.0432436035703251e-16  2.2259701546919978e-16  7.5370044429705553e-16  3.9103482480176900e-15  3.0906917101940892e-16  8.5044953610970053e-16  1.2463889277884759e-15  5.5335027170644135e-15  7.3994677534789207e-15  2.2649853991385333e-16  2.9414120759701980e-16  2.6070689493012084e-16  2.2356153666119646e-16  2.1244831616374212e-16  1.6683828653200989e-16  1.1239865699933267e-16  1.1792307566628101e-16  7.6976390201893575e-16  7.6990203362524685e-16  7.5815843085244779e-16  1.4680740509250376e-16  1.2002049966594752e-16  2.9510193104591223e-15  1.2033327777193512e-16  7.6157875917487966e-16  1.1226207018901856e-15  7.0517668476794913e-16  1.2645414024626224e-16  8.3701084943701473e-16  7.5357834543004793e-16  8.6718710357356925e-15  7.1410279908887918e-15  7.7119664029053876e-16  1.7715735077855669e-15  2.0308279168282069e-16  4.2047460453138344e-15  5.1030138475012099e-16  2.2320795599249145e-15  2.2423773055231119e-16  1.7446241589460138e-15  7.4355723301832047e-16  6.3210645942236703e-16  6.0321720848079035e-16  6.5846287540205291e-15  2.4124357476260909e-15  2.8882881745264445e-16  2.0373706465840801e-15  1.5639560880008625e-16  8.4447691496012366e-15  8.2185488189906059e-16  6.9389174684021715e-16  7.5777764291331272e-16  5.9484429677711314e-15  8.8073619371796669e-15  2.4435735962355476e-16  3.2002142008232411e-15  6.7298319537800885e-15  7.6954852245511660e-16  1.2843339442941271e-15  1.9916473982849170e-16  2.8676527166551433e-16  4.2039618805110535e-15  8.3298154400660452e-16  2.1256886703135223e-16  1.6720240389995686e-16  8.1322812303096566e-15  2.9171550543405304e-15  5.1613428145382971e-16  7.1806131441545351e-15  8.1405456384978007e-15  2.8114694266074703e-16  2.4832947048303406e-16  2.6195867803470832e-16  2.5728277826466196e-16  2.8772648904570642e-16  1.4935997247943507e-16  6.6714257517519611e-15  2.7639965876924298e-15  7.6690510670405302e-16  1.2999096203506655e-16  2.3876702789157776e-16  1.0792305600909583e-15  2.9016106876203375e-16  7.8596704542504647e-15  1.0146111886431323e-15  7.3514475428742885e-15  1.5957256470284276e-16  1.5722357516813751e-16  1.8361228340038210e-16  1.8687029225186680e-16  2.0897360965652474e-15  2.6882846529152003e-15  1.1463551368135576e-16  1.1111687862147700e-16  9.5578027360913397e-17  7.2872016666855205e-16  7.4524704717249658e-16  6.7145751566589349e-16  6.2265718704062426e-16  6.9586178722784151e-16  3.0133107138434554e-16  3.0108366452420035e-16  3.6842685742278823e-15  3.2551785722235503e-16  3.2715484520119929e-16  2.2261366737203143e-15  1.5997811007485534e-15  2.7368716702071660e-16  7.4098032905385246e-16  1.6329520486286068e-15  7.7886755347364321e-16  7.8176920170266409e-16  7.7832790950834722e-16  1.2405836086648444e-16  7.3889435869677552e-16  7.3170339227229039e-16  1.0760769288242905e-16  7.4292687978780864e-16  9.7020803317703595e-17  1.0067362965797123e-16  1.4653254161336696e-16  9.3370156067103497e-17  2.1778632370293511e-16  3.1259212272987587e-16  3.5802031709330536e-16  7.0470755926108110e-16  7.5591326821238655e-16  7.6980170136142620e-16  1.2659398527383194e-16  5.5990740982431489e-16  8.0775627612545732e-16  7.3477322800296678e-16  5.3364340995362057e-15  1.2804075704301160e-15  7.4510282113170380e-16  7.5920080750621232e-16  7.6946887319926441e-16  7.7046024460509629e-16  3.1550873588690814e-16  4.7089907753426653e-16  2.0019218508010454e-16  7.8981072204135812e-16  1.9773661436006073e-16  1.3929301949440131e-16  8.5149816378514717e-15  4.1202990589098633e-15  1.4994207824105640e-16  2.7192317253081278e-15  2.2123764284946095e-16  7.7794322799662532e-15  1.9409100418594170e-16  7.5335049976881259e-16  1.6944330177778248e-16  1.3724503415891655e-16  7.6558034905370143e-16  6.4226994299655663e-15  2.4232476144042488e-15  7.1396700312066747e-16  2.8352232458611106e-16  1.7421921800619490e-16  6.0948708196302256e-15  3.8207311974257124e-15  7.2028552265297178e-15  8.4543147138571897e-15  6.5790604665144386e-15  7.5629824892308831e-16  2.7010061470712447e-16  2.3798532050705263e-16  2.0545688910378618e-16  1.5498835536927615e-16  1.3355201961212861e-15  1.5217041789012723e-15  7.6395058579038864e-16  4.3060049365417780e-16  3.6534443119892168e-16  1.6021197201252184e-15  3.1163145045702255e-16  8.7487997678834694e-15  8.5289879010431898e-15  1.7051084909769190e-16  6.2242786100968773e-15  3.6829616905632403e-15  8.6224080859011773e-15  4.9935469804550724e-15  1.2539084579767408e-15  2.3832842759210223e-16  4.9767991696455002e-15  1.1384694436548106e-15  2.8622271605409524e-15  1.5790239569685729e-16  7.7055173249447507e-16  6.8100403119256401e-16  5.5410303895664686e-16  5.4181801005268778e-15  2.3867247242551658e-16  2.2758256009273940e-16  2.1098714959050240e-16  4.8553775658151324e-15  7.3047970395431640e-16  7.6199232625092914e-16  7.4879313826623303e-16  4.0515117707789465e-16  2.5347562724425862e-16  3.0762586061879106e-16  3.2856041296399313e-16  7.6789156779210531e-15  6.7773495072271986e-15  7.5085361413444229e-16  4.1436575303995660e-16  7.5805722023290984e-16  7.3896434393368309e-16  2.9225656621500546e-16  8.8847625261011303e-16  1.8631765835272478e-16  1.8400739054202688e-16  7.5534142632550987e-16  4.6012509287180882e-16  7.7040038785100897e-16  1.0087418345811466e-16  1.0615639644808733e-16  7.5737826866076554e-16  7.6728204950523250e-16  7.6732936689189829e-16  1.3047961034343074e-16  1.3497422091108340e-16  1.2505104460822825e-16  2.5406224986527377e-16  2.9171658580939890e-15  3.2045929979592061e-16  1.0794615079888611e-16  7.4408357102817409e-16  7.7064034667691365e-16  3.2163048118239371e-16  1.8556885910847928e-16  2.6929881366709597e-16  2.5796112566097294e-16  2.4606251883820973e-16  7.7022279300042241e-16  2.5868716696661247e-15  6.0607842191391933e-15  7.6962867189392368e-16  1.5735634538372780e-16  1.0881197474889018e-16  1.0780628315839639e-16  3.2282490794438122e-15  6.1440135992665481e-16  7.6780763848765758e-16  7.6705924182323694e-16  2.1868303557772350e-16  2.1873554227408381e-16  2.2355385303674458e-15  1.7126251529357122e-16  3.1303701172789892e-15  7.8431084995033003e-16  9.9228519455465319e-16  1.3416798552059886e-16  2.8551234636527215e-16  1.3606807543597585e-16  9.3347826450650464e-16  6.4535337919197816e-16  1.1135528770632705e-16  4.7342271994396693e-16  9.2306018722962721e-16  9.7142184479381284e-16  4.5800710822641405e-15  1.5500789528282437e-16  7.5455115804685099e-16  7.1623232295634704e-16  6.8795242099715906e-16  1.1685432164182297e-16  1.3627709326772951e-16  8.4052008408403136e-15  1.9387952347419820e-16  2.0438516340613404e-16  8.3025740022337831e-15  1.7401543858811075e-16  1.3273503329022201e-16  6.0682648850995089e-15  1.0954275854235406e-15  7.4960545308528785e-16  6.5540208334980836e-15  9.9735754700370487e-16  5.7990511136060615e-15  3.3085875591074252e-15  1.9951238126619670e-16  7.4686214086042901e-16  6.5336245161999005e-16  1.1516737420300383e-16  1.1109085870847383e-16  7.7268558267989544e-16  7.4030399128953829e-16  5.0756117024354110e-15  4.6270214626231433e-16  1.6470082193434191e-16  2.3392340071290148e-16  7.4304545084242044e-15  2.1327337299005666e-16  7.7336299670844255e-15  7.7233976446086641e-16  7.7845245329254282e-16  4.6483680682386162e-15  7.1862853310827060e-16  3.0219373151356489e-16  6.2197402174331479e-15  8.7594212936924185e-15  5.6926010177110152e-15  6.5136437703078987e-16  9.0185257399047062e-16  6.6050247246183689e-15  8.3438641590038305e-16  4.4735010295577476e-15  2.7056320904377217e-15  1.6295774419396180e-16  3.1102562006979874e-15  1.5316916129589999e-15  5.0143851745982031e-15  8.5247178111779283e-16  7.7613091761550500e-16  1.2528891375150476e-16  1.4086313141789995e-15  2.4761838370556382e-16  3.0265677788357983e-16  7.6621941000923121e-16  5.6255746879166081e-16  5.9444995424733514e-15  2.9344374364303564e-15  4.8931763509309232e-15  1.9747173509209354e-16  2.1744359338401669e-16  6.9625740983141552e-15  3.7334935739008151e-16  5.9907949226783050e-16  1.6943642018203308e-16  1.4903697958307326e-16  8.9189743411480149e-15  1.5154382677908508e-16  1.4047411570139447e-15  7.3753567784055810e-16  6.8324012796094674e-15  1.0320347956827111e-16  2.5663665160598667e-16  2.5854088039052016e-16  3.4237668392439842e-16  1.2817275863834001e-16  7.5188149208581009e-16  7.3311978704772110e-16  3.9263697515749530e-16  6.7709929436315735e-15  1.5619381856607779e-15  7.3279219913237056e-16  7.7718052611825574e-15  4.6166493363850101e-15  4.9345805448005394e-15  2.5897560443176310e-15  7.2061703119140894e-16  6.6701073652952471e-16  7.6492943295328252e-16  3.8738834784071138e-15  8.2146904703795179e-15  7.2509678348872157e-15  2.9631602214454547e-16  8.5660234127280858e-15  7.4947614094851324e-16  7.6023220607950194e-16  1.4568902209023819e-16  2.4680221824761041e-16  7.7087333680172422e-16  2.2514306446904083e-16  3.9664614481568201e-15  2.9445305918557376e-16  1.1966145122537831e-16  7.5699958134756617e-16  2.8099312995707556e-15  1.7357204833998647e-16  6.8766622442237155e-15  8.1048730744043806e-15  6.9481982341062694e-15  2.3264787457840155e-16  2.7653846305202305e-16  1.1676924381365712e-16  4.6557789151820055e-15  6.2972169294208938e-16  1.2879215251263240e-15  1.0294446704530832e-15  1.2814102812617184e-16  7.4056387257002998e-16  3.4803340634418441e-16  4.2591307576300245e-15  8.7923263923261746e-15  5.1594248656012913e-16  8.3779798781405670e-15  2.1293372528577518e-16  6.7826852876996513e-16  1.3423508013305950e-16  1.4204177063226261e-16  7.0017095068741401e-16  7.6373017150164836e-16  1.0379478529641344e-15  2.1198784952727987e-16  8.7149922498319086e-16  1.5554953034962416e-16  2.9120361295159695e-16  2.9059299670417681e-16  2.5776890892516306e-16  2.3897255667212948e-16  2.3771781576408307e-16  5.0642336353446888e-15  2.7191343690459403e-15  8.4389669031496294e-15  3.1225036042528480e-16  7.3105937185270995e-16  7.7775201439744542e-15  7.2260695328008589e-15  7.5956502208703491e-16  9.0230242016621284e-16  1.1838659766993164e-15  3.4194377947639382e-16  2.6528488040066329e-16  2.9501318523583266e-15  7.6897153716478773e-16  7.6539988078106695e-16  2.2417956974075004e-16  4.8273102707420204e-16  2.2895215585383170e-16  9.6637245653289113e-17  1.3336366532441702e-16  1.8401412366738430e-16  7.6190699468461248e-15  7.6838602456922729e-16  5.0418071960203903e-15  1.5618742463556475e-16  2.5722902551910604e-16  3.1880052332511900e-15  3.1486732275908092e-16  9.3096135547144598e-17  1.0368031735991636e-16  7.5215267131302261e-16  2.7707816804382867e-16  7.6448830816760010e-16  7.6169081835964126e-16  1.8790451681231211e-16  6.9749726804104003e-15  2.7359274143730272e-16  1.3863999486393453e-15  2.7561731244157491e-16  8.6869307860215352e-16  1.6867335524502155e-16  7.6296167274893430e-16  7.7024102289294856e-16  7.4327918495441535e-16  7.4564773820704273e-16  2.6286446612376404e-16  2.8826001265624354e-16  2.6726011972767207e-15  1.1873875109304901e-16  7.6715064921752456e-16  7.6887426774628931e-16  2.0069259174219846e-16  1.8670110536385288e-16  1.7034753666784501e-15  7.7007973129298033e-16  1.0611792354684587e-15  1.4114892211567045e-16  2.4880836294824797e-16  9.5734292872384744e-17  1.5158667098585968e-16  1.4992631773481202e-16  1.6673355349134437e-16  2.3719779082765407e-16  6.3248093782887365e-16  1.5826541098397714e-16  9.6709440548227058e-17  7.8643961182588521e-16  1.3666626038356635e-16  6.3038742763483609e-16  6.4420840887956573e-16  2.1167926024021067e-16  3.5050049073671265e-15  2.3721218720638152e-15  3.5979458554762304e-16  1.8365719981944289e-15  3.7453702397735010e-15  2.6582384337030127e-16  2.7187043127212261e-16  1.1349232035437150e-16  7.6480154910617735e-16  8.3247553040541020e-16  2.8098378179691361e-16  1.9270990167136479e-15  7.6264507177648348e-16  1.1900284633477069e-16  5.3188400156526288e-16  3.9239700390930905e-15  9.7016131408679976e-16  1.3210779942892627e-15  1.0124159704708428e-16  2.2603442575372468e-15  5.5467373944604404e-16  1.0402484368675477e-16  7.5185851491978776e-16  2.1304396016904375e-16  1.9698384413434523e-16  1.9886645459982863e-15  3.6618598955619773e-15  7.3644058472398499e-15  5.4131281133368722e-15  9.8340649372241351e-16  5.6053283310640176e-16  7.3053093188895593e-16  6.2733436013027742e-15  1.3370275537093606e-16  1.0512863942243511e-16  7.6926747816467984e-16  8.6970121320987251e-15  3.0560595969145672e-16  2.1419717832506099e-16  3.2203084118108859e-16  6.6399392202756001e-15  5.8948766599737150e-16  8.5915278685216530e-16  8.0540770421703085e-15  6.8065595507524021e-16  9.8852880782910501e-16  2.6659969161268343e-16  1.3985018930993111e-16  1.7625165851085951e-16  3.0797009421643002e-16  6.9637921531348694e-16  2.9579353943249546e-16  3.0396468521388382e-16  2.9840772015772309e-16  4.5394987430272519e-16  3.0204725547070605e-16  1.0953245524548468e-16  9.9012194585356384e-17  8.7438451833998575e-15  4.8962300547213746e-15  6.0444180510463667e-16  7.1200984496862309e-16  2.0473065644509165e-15  6.1119593014162808e-15  1.2774023560596946e-16  2.7224936546298454e-16  1.5335431751037836e-15  1.2191564327321071e-16  2.4218321220559768e-15  2.9224217742300192e-15  7.6008788447939787e-15  5.0724780537126073e-16  2.0514516652838928e-15  2.2953062202108288e-16  8.3076878022012050e-16  7.6538489116870722e-16  3.2663822183957412e-16  3.2890554061648476e-16  3.9513635219460857e-15  2.3290155019216392e-16  4.7878902298192086e-15  3.1765884823956832e-16  7.6699191592931120e-16  9.9633627755880511e-17  1.7684631511408340e-15  4.3720113351873738e-15  2.0276966058417768e-16  4.1789112262533059e-16  9.8575302235098017e-16  2.6766443103627947e-16  4.4981600490679282e-15  3.1902589681405924e-16  1.2084791450048054e-16  1.4606676995545476e-16  2.7371337224650679e-16  1.4620584031631961e-16  5.8097619387068010e-15  7.5101763999747570e-16  7.6996166830769012e-16  7.7169990101725528e-16  8.1673805595402746e-16  7.3645866820532446e-15  1.8365303318868803e-16  5.0886019946381514e-15  8.5340852042657124e-15  6.2639630378325553e-15  2.9795718793810645e-16  1.2484370565760971e-16  1.1420936960948718e-16  7.6778463910495356e-16  6.7017301545188186e-16  8.0608326187599000e-16  1.1950530141651375e-16  2.5126783468937737e-16  7.2729760239665670e-15  7.3949628131985952e-16  6.8341006526370644e-15  7.3881059823515097e-16  7.2978241653536428e-16  7.5213925262122570e-16  7.4707206469309500e-16  7.3872850029967608e-16  1.1638271594546548e-16  1.7128570699667827e-16  1.9199191619048458e-16  1.0241390975940606e-16  1.0673707102024132e-16  1.0857638526758316e-16  6.1061414441921765e-16  6.5356639092782846e-16  6.8835004053338458e-16  7.4428504143552255e-16  4.6129446239880969e-16  2.8348539690815507e-16  1.5536649571782910e-16  7.6974007396728291e-16  7.2801234235666214e-16  3.2312386888444784e-16  7.5414212975792440e-16  9.3646422485619614e-17  3.0915763657190654e-16  2.1150562395994772e-16  3.1738321351264882e-16  3.0723871005417406e-16  2.5635425757788311e-15  2.3145586130334760e-15  4.1882493581769072e-15  5.8191879860928376e-15  7.2466377621373807e-16  8.1907506554723556e-16  3.9544157137768368e-16  1.4932011083692766e-16  9.1569125158374483e-16  9.2900826078734306e-17  1.7289589255468380e-16  8.4551631455977721e-16  2.1240735521159987e-15  7.4732523851839165e-16  2.2554797269346780e-16  7.5965556987711530e-16  1.2785877121379128e-15  6.8858222769291790e-15  2.8994473369087897e-15  3.8359627669003395e-16  3.1346816495235391e-16  7.0898338964063721e-15  4.0597646162262460e-16  7.7047368716259473e-16  3.4833526440323596e-15  2.6739618566019420e-16  7.7332218795128318e-16  7.1716824633610732e-16  7.3491120671850008e-16  7.4266689520574485e-16  6.8996675128033342e-16  4.7096170304671143e-16  1.1173555908512453e-15  1.3244737509109368e-16  8.3504097077709260e-15  8.0252452659032036e-16  1.4322706909968365e-16  7.3181336263131645e-15  1.1659024268917978e-16  7.2825253625043564e-16  7.9822232551716967e-16  7.5434462507010447e-15  6.6273813658924523e-16  7.3131304200017328e-15  7.7328753056431524e-16  2.2785812969200041e-16  6.7278026283654247e-15  8.4750124317274657e-15  1.6172607804031002e-16  1.2282213111126008e-16  4.4266801904434546e-15  1.4048217604612594e-16  1.2854555779827511e-16  1.5256120228475885e-15  2.1209765392673464e-16  4.8373804107355401e-16  3.7222554887572007e-16  4.7987900406303145e-16  1.9695636553439414e-16  7.4942443176664527e-16  7.5655900833306383e-16  4.0119445548401888e-15  2.4131490336049586e-16  1.9049276187378830e-16  2.0093175647230672e-16  1.6955191263436600e-16  7.6915691693473089e-16  7.0486719582605004e-16  1.0356906730360873e-15  7.5928498783959089e-16  2.4848062267885570e-16  7.6603376119189296e-16  7.6812217145224446e-16  9.5043672207646326e-16  2.6764849089311489e-16  1.8251206503699906e-16  1.7232330453964203e-16  7.6979541868576537e-16  9.6314869236979054e-16  7.3694994106310050e-16  7.4210439715731593e-16  7.5392463129318006e-16  1.7441836106047885e-15  1.3125707930296800e-16  7.7098275936447044e-16  7.8374469449786975e-16  7.6510646229342353e-16  7.6609124859677990e-16  7.6134140476614367e-16  2.0934291721958171e-15  3.0132067555315117e-15  2.2236915303925413e-16  1.6680546721714761e-16  1.0658237282815676e-16  1.4536188693036237e-16  1.5660830432058071e-15  8.6747411583412981e-16  6.6315052673367147e-16  1.1322044313168196e-15  1.4948453164819575e-16  2.0162536374081814e-15  2.3553790000244642e-16  3.7423355272838746e-15  3.9296085889532130e-15  1.6261430874781501e-16  6.7396105200634928e-15  8.1799890605147980e-15  6.0041200823197847e-16  1.4155368505063425e-16  7.3935201286870955e-16  7.1413259893438683e-16  8.8768376026801539e-15  2.3269754112042078e-15  6.8498368652213499e-16  7.6540376611870491e-15  8.5858891969109451e-15  7.6454040557400854e-16  1.1361163768644840e-16  2.5525555333742973e-16  5.1409302570696173e-15  7.1964440543064833e-16  7.0228353879030054e-16  7.5993420033197578e-16  7.4598688923430911e-16  1.5778466672123173e-16  7.3921363576759989e-16  1.5989448246538252e-16  1.1307870210592638e-16  7.6982056410760529e-15  7.6901096192023976e-16  2.0361232707127847e-16  6.2690663840462062e-15  1.4020914061565564e-16  4.8688423501139991e-15  7.5692919283476516e-16  7.6275513789150524e-16  7.6719825392387839e-16  7.5544048084221642e-16  3.8051008137506