<?xml version="1.0"?>
<VTKFile type="UnstructuredGrid"  version="0.1"  >
<UnstructuredGrid>
<Piece  NumberOfPoints="6486" NumberOfCells="12696">
<Points>
<DataArray  type="Float64"  NumberOfComponents="3"  format="ascii">0 5 0  0 0 0  5 0 0  5 5 0  2.5 0 0  5 2.5 0  2.5 5 0  0 2.5 0  2.5 2.5 0  0 1.25 0  1.25 0 0  1.25 5 0  0 3.75 0  5 1.25 0  3.75 0 0  5 3.75 0  3.75 5 0  3.541666666666667 1.458333333333333 0  1.458333333333333 3.541666666666667 0  1.875 1.25 0  3.75 3.125 0  1.284722222222222 2.326388888888889 0  2.683189655172414 3.767959770114943 0  0.9375 0.9375 0  4.0625 4.0625 0  0.7252209595959597 3.026357323232324 0  2.763480392156863 0.9129901960784315 0  1.875 4.345238095238095 0  4.345238095238095 1.875 0  4.192708333333333 0.8072916666666664 0  0.8072916666666665 4.192708333333334 0  3.368055555555555 2.326388888888889 0  0.6837606837606839 1.738782051282051 0  3.285485245626782 4.324328415208927 0  2.551239698778062 1.693130150610969 0  1.827256944444444 2.868923611111111 0  3.464875022477093 0.6813924607921316 0  1.942880513719175 2.059558626187995 0  3.04563492063492 2.971230158730159 0  4.375 3.4375 0  2.13639445139758 0.5994472256987903 0  4.272228422619047 2.606956845238095 0  0.625 0 0  0 0.625 0  5 4.375 0  4.375 5 0  0.6400043240752655 2.384646170113389 0  1.347691225855598 1.660875475110776 0  3.515783617857982 3.723905460714006 0  3.125 0 0  1.875 0 0  0.625 5 0  4.375 0 0  5 1.875 0  0 1.875 0  0 3.125 0  1.875 5 0  5 0.625 0  0 4.375 0  3.125 5 0  5 3.125 0  1.489644181965304 0.6007147273217681 0  2.054597701149425 3.742302955665024 0  2.662520990197781 4.39452575763237 0  2.415835363784578 3.165530021913244 0  0.8679986894865213 3.602373689486522 0  1.267459753787878 2.886186079545454 0  4.099702380952381 1.365327380952381 0  1.316964285714286 4.438244047619047 0  3.7915135293491 1.959691594758709 0  2.875141124191255 2.118761176511833 0  3.00418010501169 1.397414179299248 0  0.4081721322167092 3.410647930198662 0  0.4166666666666666 0.9375 0  1.014190407998288 0.4422301359994293 0  1.383260571305984 1.162718286082048 0  4.53125 3.90625 0  4.453125 4.453125 0  3.772848162504192 4.48678272083473 0  2.8125 0.404329517041716 0  0.4538690476190476 0.4538690476190476 0  2.305461739347387 1.04517007574828 0  3.771263799175824 2.624190260297553 0  3.229617768018734 1.809956994202883 0  3.780190884441317 1.025307111692601 0  4.646337365591398 0.9375 0  4.537623451379149 0.4609485750426037 0  1.200477888421151 3.934852888421152 0  0.3536626344086022 4.0625 0  0.4623765486208503 4.539051424957397 0  4.0625 0.353662634408602 0  4.560525106689535 1.390989100915847 0  3.958439078571988 3.619844539285994 0  4.672619047619047 2.1875 0  2.1875 4.672619047619047 0  1.862808494877602 3.325947624431087 0  0.3268135998175443 2.8125 0  4.674181280189791 2.8125 0  2.283233994935276 4.138623547175983 0  0.9375 4.677879119362977 0  3.08488061581743 3.469889594488945 0  3.113427375573758 3.913955730709506 0  1.652847799068813 3.950848935641292 0  2.932652662909449 2.550542739521724 0  3.311350648514189 1.088831994878698 0  0.6770833333333333 1.295851139601139 0  0 1.5625 0  1.047214787840024 1.96818092308125 0  4.183331482095785 3.03958703580843 0  3.4375 5 0  1.071307777252521 3.246275861010018 0  0 2.1875 0  0.386576856303419 2.03125 0  1.713862716483534 2.439783116849799 0  1.775396256975935 1.665976816304977 0  2.231236976948428 1.443917394671254 0  2.373900732409897 2.086930260150635 0  4.114918237574474 2.221646174618671 0  3.661302567757379 4.099620139144836 0  3.378215938602977 2.734494874063393 0  0.9842097536079312 2.597286741306247 0  1.642795138888889 4.672619047619047 0  4.0625 5 0  2.099458800960004 2.567446522665629 0  2.616202751603346 1.297895893940078 0  5 4.6875 0  0.9937554350075428 1.512592975947215 0  2.8125 5 0  3.002695327068194 4.614055254615477 0  3.205627424097207 0.3852436382721472 0  1.678616581261621 0.927556612265266 0  3.365326698305438 3.196943731162083 0  1.554834936170314 3.120009882655813 0  3.108408340729323 0.7797187795784133 0  3.684368918102174 0.3728877601163941 0  2.716214835303553 3.39276351922003 0  2.37718583984784 3.551973401560441 0  0.3750662445374837 1.52191994866787 0  2.679073487930202 2.844160731602957 0  1.557635869750078 1.991068682985722 0  1.812595698561088 0.3839273018252746 0  2.512014721281916 0.6320641118792227 0  2.1875 0 0  2.349973454443689 0.3189980586887866 0  4.6875 3.59375 0  4.636052949022233 3.178355898044465 0  4.6875 5 0  3.345485909784306 4.665765449101383 0  0.536727472389443 3.749603193819277 0  4.349541499640203 1.116201826262156 0  2.886559045931982 1.774013674579691 0  0.6770833333333334 0.7142857142857143 0  1.5625 0 0  4.120842096538671 4.628726497527622 0  2.176157474177018 1.793470423744689 0  2.175650736889416 2.909863021769539 0  4.036616464259081 1.709699085170981 0  3.887974623473683 0.6492597046022868 0  3.4375 0 0  3.70675699592552 2.289666624772415 0  4.697265625 4.208984375 0  2.815177577303495 4.085937578239174 0  4.672619047619047 1.730733296184288 0  4.6875 0 0  5 0.3125 0  0.3125 5 0  0 4.6875 0  0.3276089296588581 2.484526834811734 0  0.712433309515852 2.065138854645612 0  0.6376435912223634 2.711473454001295 0  1.184991292170422 0.7222504400947201 0  1.31884329779317 0.3206944232264773 0  3.683609198994263 3.44428698533042 0  0.3125 0 0  0 0.3125 0  4.231797269642997 3.789141808928991 0  1.564375596050781 1.425998687184973 0  2.007640894175573 0.9032106925568466 0  0.955125897558294 2.276666098587227 0  1.43898735721003 2.611310720271951 0  1.954491523717513 4.040700257877075 0  1.752947649777421 3.652439445419346 0  2.509575750247638 4.678021307664052 0  4.687194709705067 2.499965519538002 0  1.5625 5 0  0.9375 5 0  5 2.8125 0  2.1875 5 0  5 1.5625 0  5 2.1875 0  4.0625 0 0  5 0.9375 0  2.8125 0 0  0.9375 0 0  0 0.9375 0  0 2.8125 0  0 3.4375 0  0 4.0625 0  5 3.4375 0  5 4.0625 0  4.010848109290813 3.306446973933037 0  0.3077461147713075 3.119700563473354 0  4.6796875 4.6796875 0  2.333079012424948 3.845757959077508 0  0.7829771267899832 3.317744656243421 0  1.159100632608513 3.532487125138763 0  0.799066251840424 3.893573750162776 0  1.57326499580282 4.255438189102632 0  0.7309366047093668 0.2991402264438908 0  0.3054777494262156 1.223275888123843 0  4.027475154280377 2.78211326942427 0  2.35270874745988 4.426658168476266 0  3.474236283732569 2.021154281686229 0  4.401414236174444 2.329446628171927 0  3.39403781747337 3.987097102903034 0  1.077524329801934 1.214100792470484 0  4.065611571711903 1.066085524514197 0  2.165399002716117 3.335637450367864 0  3.007639563081306 1.093684039371638 0  4.030818285732145 4.351883315180857 0  3.504115222530889 1.739284194222036 0  1.224503368215566 4.712091441401919 0  3.805634204685714 1.321528442399996 0  4.319233123479386 1.573547993867769 0  1.024007670021325 4.394604704797005 0  3.776400432023095 3.839003324979723 0  2.991819819453308 4.320567175146181 0  0.9782797534072181 2.886406017887129 0  1.763835134082104 0.6602345487826022 0  3.765182288741625 1.631193038541544 0  2.267959593989681 2.345053543725764 0  4.412434895833333 4.168294270833333 0  4.4072265625 4.7255859375 0  2.791493971314009 3.11210833271929 0  3.408766223032414 3.469500900677365 0  1.915147569444444 4.725484476461039 0  2.070301968506271 0.2605666686358055 0  2.767932250651506 1.530295992695836 0  3.280065043173439 1.364863281105779 0  4.45101570110842 2.974157152713635 0  3.521928862999512 2.96990445010402 0  2.552921961347576 4.008414007169315 0  0.2682955376854191 3.657555015841003 0  3.084522868361304 2.310593316718068 0  2.669255823227708 1.939379494498064 0  2.615884629473921 2.238841231570381 0  1.405652091971449 0.8877813821442277 0  3.25151486618811 3.68536115104276 0  1.963741569810629 2.331207252264507 0  4.017297980292599 2.486269171379106 0  3.869168920841219 4.748188103831625 0  3.596868753579134 4.77342723825056 0  2.41262958240343 2.764128584995838 0  1.266750578673391 1.404747710001619 0  1.559243962241121 2.85146506328516 0  3.128799423834764 2.052081657715259 0  0.6770833333333333 0.9778025793650794 0  0.2083333333333333 0.78125 0  1.978224492765132 3.087074731032578 0  4.051448850909273 1.969392119104174 0  1.320577095006813 4.172234780971559 0  3.214261103850064 2.534397293281829 0  0.2635729089754111 1.779234736680035 0  3.510775680035133 4.460728640112889 0  2.603081405968802 0.2432579385496493 0  2.866341315154884 0.6662105505481998 0  3.000919221100777 0.2270278495648781 0  1.298858304121393 2.05917319923859 0  2.020292299736597 1.589794568392338 0  0.7401688396476035 4.470780315741533 0  0.6721783535561408 4.733125588707921 0  3.753712482075402 2.874301339727514 0  3.557348205914658 2.491958694539413 0  1.094565978195436 0.2011034254079851 0  0.9338148378011396 0.6833568465908735 0  2.945530578578538 3.701798332963805 0  3.111707186654356 3.216904195825605 0  1.341791111822685 3.293123262233967 0  1.632939924064587 1.184895891095613 0  0.6335477978936732 3.517393619499591 0  0.5576014611130192 3.210998966942492 0  1.564344196470102 0.3630498725895039 0  2.75362450242839 4.626680495816594 0  3.571304405229554 1.192452351107437 0  3.522934592621944 0.9359134489437148 0  4.453125 3.671875 0  4.765625 3.828125 0  1.055906321410838 4.14310472322957 0  4.795146539102229 0.46875 0  4.767156345199235 0.7178596932040019 0  0.2048534608977711 4.53125 0  0.232843654800765 4.282140306795998 0  0.5393715189906129 4.270810883024032 0  4.329922600274667 0.2750645887059072 0  4.275515096738972 0.5448389557295173 0  4.477747423652795 0.7252838358993123 0  0.2002829820452772 0.46875 0  0.4352678571428572 0.6956845238095237 0  0.5007241582667088 0.2123388122114133 0  4.672890923830735 0.2500902110494848 0  0.4308009280819452 4.783624996516437 0  2.104871305393774 4.438653689007242 0  0.2274454167838428 0.2274454167838428 0  3.446466574593436 0.4359605369011901 0  2.12354112127588 1.217588426759619 0  2.309175236825235 0.7888355970690434 0  2.556178570281936 1.054299163237582 0  0.578683248637
[...]
<PointData  Scalars="f_800-2"> 
<DataArray  type="Float64"  Name="f_800-2"  format="ascii">1.9604601353881720e-11  2.5905731661435601e-11  1.9289415987002344e-11  1.9072998364473259e-11  2.3933785435196040e-11  1.9290583898372351e-11  1.9445498805384081e-11  2.3996150205057885e-11  2.3849673162077148e-11  2.5369972669558867e-11  2.5342761366297021e-11  1.9374273718554173e-11  2.1932940793448087e-11  1.9284340515922534e-11  2.1854643599651786e-11  1.9314364351687487e-11  1.9425636840668741e-11  2.2241250835842105e-11  2.2345540677912610e-11  2.4745279614577576e-11  2.1879616038814566e-11  2.4241060191406708e-11  2.1933456587886577e-11  2.5540056026692705e-11  2.1078170790570581e-11  2.3215595232693269e-11  2.3545481008418292e-11  2.0824891022588042e-11  2.0685404631434251e-11  2.0977432376239750e-11  2.1160186656114462e-11  2.2577822132158347e-11  2.4929124961178547e-11  2.0851353184113328e-11  2.3878021711568309e-11  2.3468157094385987e-11  2.2370663644674811e-11  2.4538334612710032e-11  2.3027199918315714e-11  2.0650441654599123e-11  2.4423538296098129e-11  2.0842034329978202e-11  2.5740372232711288e-11  2.5748011521571685e-11  1.9318067434990641e-11  1.9441520433977095e-11  2.4167967980520875e-11  2.5036746990164756e-11  2.1946159177930458e-11  2.2950181959310650e-11  2.4726767445419414e-11  1.9541302360840084e-11  2.0614228564004090e-11  1.9272816897845155e-11  2.4780736568527241e-11  2.3039067521546721e-11  1.9424627107035728e-11  1.9286645020752899e-11  2.0879576050571875e-11  1.9439304771960182e-11  1.9296467550570168e-11  2.5138085620026466e-11  2.1990930263247855e-11  2.0706964513599073e-11  2.3011391505624985e-11  2.2218997598261068e-11  2.3453467804382075e-11  2.1170764574316089e-11  2.0608777681741467e-11  2.1790032522138225e-11  2.3394267696940144e-11  2.3175784442178974e-11  2.2557610906754603e-11  2.5589665818810384e-11  2.5522587422575856e-11  2.5224414600090344e-11  2.0324144162249023e-11  2.0259563954455507e-11  2.0527291639567402e-11  2.3469548922391671e-11  2.5787430245845977e-11  2.4215569119073970e-11  2.1846385319194356e-11  2.2810039455510999e-11  2.1793171739999041e-11  2.0042070079588161e-11  2.0276970752326602e-11  2.1598960374861399e-11  2.1334045864419820e-11  2.0367410558882662e-11  2.1244681883194550e-11  2.0213733590711884e-11  2.1444291489337504e-11  1.9994146532527998e-11  2.0141591804040043e-11  2.2728554011535025e-11  2.3543720886271496e-11  1.9994358255676195e-11  2.1227229423028376e-11  2.0077152171934338e-11  2.2484043547834857e-11  2.1674087832973732e-11  2.1584721928731236e-11  2.3288676437252024e-11  2.2647518405190842e-11  2.5338243164468832e-11  2.5100625309642074e-11  2.4680959678427321e-11  2.1045136117114213e-11  1.9434049183770060e-11  2.2854458240099007e-11  2.4413714308832788e-11  2.4621313911693391e-11  2.4096386933702341e-11  2.4819566871794918e-11  2.4313819335368055e-11  2.4111265769072291e-11  2.1151320901455789e-11  2.1302105296976617e-11  2.2558510094130562e-11  2.3871594145222116e-11  2.0099210539456680e-11  1.9428411479140455e-11  2.3946076421283524e-11  2.3785179555240290e-11  1.9250934069590341e-11  2.5160646456171330e-11  1.9446052536999806e-11  2.0262559655373597e-11  2.2821381436014750e-11  2.4954939754280364e-11  2.2517189182759223e-11  2.3078420689638411e-11  2.2994922364123472e-11  2.1961184753057245e-11  2.2630306137469417e-11  2.2328563255895172e-11  2.5139426035117411e-11  2.3454235211881748e-11  2.4694711829671686e-11  2.4803362670203294e-11  2.3914131829493705e-11  2.4348541998913612e-11  2.4134264950637404e-11  1.9988765867523437e-11  2.0085919512639435e-11  1.9358005254081001e-11  2.0130810115367082e-11  2.1933374736750111e-11  2.0655093996705386e-11  2.3381281451453549e-11  2.5686056582561794e-11  2.5061649952758663e-11  2.0219172967746564e-11  2.4381134602879163e-11  2.3419426635980496e-11  2.1299645105017864e-11  2.1575650092474266e-11  2.2418175155187692e-11  2.1955957948652690e-11  1.9946049528076006e-11  2.1332824476664089e-11  1.9980094749946463e-11  1.9954897034908029e-11  1.9290341563962463e-11  1.9628474022171916e-11  2.0229051565808583e-11  2.4024974761207153e-11  2.4567627481383883e-11  2.3702374037028023e-11  2.5401297756896336e-11  2.5288568757011567e-11  2.1951793020642241e-11  2.5855993569942046e-11  2.5850446445300222e-11  2.0914624001816316e-11  2.5043274938427753e-11  2.4588361653816135e-11  2.4305544174692575e-11  2.3854927621087310e-11  2.1423544390365271e-11  2.2150320317691471e-11  2.0125203605891170e-11  1.9962868271209112e-11  1.9443029255460864e-11  1.9413646552334482e-11  1.9297313805908135e-11  1.9423767723220817e-11  1.9274522311679517e-11  1.9279291843818101e-11  2.1247931171290789e-11  1.9294561972170680e-11  2.3458261322743086e-11  2.5569008762258490e-11  2.5585901105803765e-11  2.3533932611324701e-11  2.2502752644301896e-11  2.1283375608124122e-11  1.9305148884985002e-11  1.9319560180579042e-11  2.1380311519294919e-11  2.3050074460632121e-11  1.9769548156475289e-11  2.1796084458212215e-11  2.2727338294328443e-11  2.2358815892742181e-11  2.1682407600220095e-11  2.0986624787281814e-11  2.5692228926840684e-11  2.5391540739567231e-11  2.1348165537859714e-11  2.0665782161200356e-11  2.2381159566251366e-11  2.0563581889378731e-11  2.1536857322683615e-11  2.5403007862416023e-11  2.1233449355905097e-11  2.2708450974426218e-11  2.3163098415773342e-11  2.0752236245159284e-11  2.2317029505719176e-11  2.0062269166303826e-11  2.1750803585147708e-11  2.0726671012122073e-11  2.0736227901459151e-11  2.1598501841330308e-11  2.0852195385332855e-11  2.3442653496687512e-11  2.4863359140313641e-11  2.1826327172986430e-11  2.4137886229479148e-11  2.0492610168004460e-11  1.9952807654419248e-11  2.3089055008129307e-11  2.2302113438151346e-11  2.0001239350977393e-11  2.4500151216101917e-11  2.3557105732277783e-11  2.2708689750786665e-11  2.0477097788574660e-11  2.2296094086011581e-11  2.1477932732470615e-11  2.2108193824693955e-11  2.3059158443244865e-11  2.3707609504395704e-11  2.3777935382284378e-11  2.5218016461991513e-11  2.2099515193896659e-11  2.4267117542050528e-11  2.1357028464070769e-11  1.9966630620582829e-11  1.9905843537047229e-11  2.3650306477864604e-11  2.5244986487038730e-11  2.3498017948738783e-11  2.2986566821136134e-11  2.5588255424770279e-11  2.5675618348093767e-11  2.3123789266756800e-11  2.1277410335088256e-11  2.1140205611378305e-11  2.2841042957947792e-11  2.4885194146490315e-11  2.0570828814735958e-11  2.3784231537696964e-11  2.3381915361421516e-11  2.3161740137732115e-11  2.4576617737649995e-11  2.4575033277729154e-11  2.0510070099458288e-11  1.9960252740448636e-11  2.1875793944000249e-11  2.2243555475939135e-11  2.5463938077836652e-11  2.5572639626010634e-11  2.2073197650664052e-11  2.2794695612815693e-11  2.2783578992736940e-11  2.5002809722223391e-11  2.2375946838511963e-11  2.2903876496726279e-11  2.5065303217088010e-11  2.0228326709468851e-11  2.2185934552648691e-11  2.2276594061374079e-11  2.0485864827024300e-11  1.9825231177432275e-11  2.1200563811811930e-11  1.9719073332753052e-11  1.9791927991462467e-11  2.0527216426130136e-11  2.0884396535110817e-11  2.0921824486597981e-11  2.0709984160398905e-11  2.0816800673386463e-11  2.0399383671657459e-11  2.5819550389668892e-11  2.5739862616190672e-11  2.5795973734834181e-11  1.9988188858866110e-11  1.9992848013848350e-11  2.0629306951166835e-11  2.5861403963446544e-11  2.2395921728313267e-11  2.4448997077717580e-11  2.4204487505220553e-11  2.3867137430977677e-11  2.1529781512135643e-11  2.2696792956508646e-11  2.4343621618065848e-11  2.1680374416701390e-11  2.1631781976313342e-11  1.9829799508578785e-11  1.9774297747856081e-11  1.9765837443845359e-11  2.5396475207276551e-11  2.1886488241218966e-11  2.1874000255928822e-11  2.3068271868428214e-11  2.0672976590415440e-11  2.3038076845199908e-11  2.1967246801481403e-11  2.4918604921021873e-11  2.2681995544932113e-11  2.2362908394678278e-11  2.0685585344218942e-11  2.4903591937560990e-11  2.0463778195530226e-11  2.1021040951089927e-11  2.4314039591802149e-11  1.9773981792323655e-11  2.5243031333295483e-11  2.3938681254597211e-11  2.1103357871303327e-11  2.1298069603285103e-11  2.1413545633960109e-11  1.9790282364185679e-11  2.3395968347151108e-11  2.3775312702623471e-11  1.9641132070325332e-11  2.0355320974205770e-11  2.4516761080337055e-11  2.2687657628116845e-11  2.2643508787380172e-11  2.0973257174592943e-11  2.2133920664826387e-11  1.9648223826367394e-11  2.1276375081656179e-11  2.3472383093920087e-11  1.9881365222735295e-11  2.3829069641235980e-11  2.5144679548062544e-11  2.5483277507950841e-11  2.5457351020228238e-11  2.2646008154492769e-11  2.2779157910887057e-11  2.4214402495860657e-11  1.9638794716154655e-11  1.9639182128885324e-11  1.9768221062457497e-11  2.0001883757908359e-11  1.9440263806079745e-11  2.1465381445367361e-11  2.0843015708134725e-11  2.3522128867977755e-11  1.9765678380335306e-11  2.3067116621324132e-11  2.1123500596418649e-11  2.1233731777128297e-11  2.1775021293065677e-11  2.3582783730463839e-11  2.3312000385423251e-11  2.5663480999203853e-11  2.0600563166536461e-11  2.2743950319213544e-11  2.4340713494219479e-11  2.4097324217609954e-11  1.9777873527624681e-11  2.4821806933127285e-11  2.4843205023461999e-11  2.4989200556346092e-11  2.4626618372287316e-11  2.1479832442233231e-11  2.3786687498471758e-11  2.2335984073885981e-11  2.3065467498229431e-11  2.1618989534047846e-11  2.1045345825726489e-11  2.0238054309538249e-11  2.3146713774354113e-11  2.3914937410523694e-11  2.5372618013700558e-11  2.0578691565852077e-11  2.4834203605292666e-11  2.4764905657864290e-11  2.0692713241073509e-11  2.3280550903437847e-11  2.2709178408880549e-11  2.0191906786015331e-11  2.3638271266076020e-11  2.5535253986282748e-11  2.4670666548075693e-11  2.1552765018307151e-11  2.0892131275190722e-11  2.3226689403521849e-11  2.0964125427669820e-11  1.9962500116778457e-11  2.3104207437195839e-11  2.5008407098505137e-11  1.9604180714761366e-11  2.4110283474024367e-11  2.3987415790948421e-11  2.4174119710515245e-11  2.0604088084055373e-11  2.2535910320269500e-11  2.3110274019216609e-11  2.2178158100832297e-11  2.5329756483200262e-11  2.4421914301879983e-11  1.9387606396864945e-11  2.3945024340261645e-11  2.1717569462894080e-11  2.1768942639112088e-11  2.0560601165605888e-11  2.3684456541786386e-11  2.4083264773496313e-11  2.2006017560799919e-11  2.2225696302815501e-11  2.1644044938629678e-11  2.1318216941976171e-11  2.5205881644559063e-11  2.3339735242903350e-11  1.9761204829658124e-11  2.0289688813101258e-11  2.1223620839943536e-11  2.3897435007888258e-11  2.1479068644041492e-11  2.3483119107631009e-11  2.1254391062359873e-11  2.5139602402822414e-11  2.0265856400437489e-11  2.2454096977422807e-11  2.4410855435350470e-11  2.2060392897491549e-11  1.9669542702072226e-11  2.4852610035293581e-11  2.2551396012585434e-11  2.3481329088201119e-11  2.4667991791585668e-11  2.0287999211498635e-11  2.2676273882453503e-11  2.4428797900074822e-11  2.0544216588853572e-11  1.9969988396497458e-11  2.0416416889547192e-11  1.9419420094411122e-11  2.4578218086445146e-11  2.5173142304623552e-11  2.3718761078100156e-11  2.5068694122223606e-11  2.2413031099394237e-11  2.2908793480828073e-11  2.3938258171254582e-11  2.0937394681525631e-11  2.1057842710003184e-11  2.3663530302143029e-11  2.0406958246079455e-11  2.4721541602984717e-11  2.2923921343820144e-11  2.5302009541757799e-11  2.1609434972936244e-11  2.5071056760693692e-11  2.4837043091940612e-11  2.4165681857915497e-11  2.3667214218488455e-11  2.3668357890802213e-11  2.2300251746777949e-11  2.1992934170798066e-11  2.2900245992176487e-11  2.5582756985304056e-11  1.9462993904215654e-11  2.0344057784637202e-11  2.0267157186576030e-11  2.0363766860357781e-11  2.4154511225725994e-11  1.9440135894633524e-11  2.5108892810934140e-11  2.4366198448892706e-11  2.4115603209863730e-11  2.0918149011573748e-11  2.3247886999322754e-11  2.3278425977216976e-11  2.0998163640710484e-11  2.3117725949523674e-11  1.9270481731684538e-11  2.0039776066430151e-11  2.1724955505169324e-11  2.0821078345020278e-11  2.1822797964752533e-11  2.0796708784904056e-11  2.1427988812321718e-11  2.2811569411081200e-11  2.4009064382666400e-11  2.5661688478435114e-11  1.9287941622038996e-11  1.9660542191869861e-11  1.9793802167646004e-11  2.4711649734044137e-11  2.2086788817522412e-11  2.2248488757850402e-11  2.2117600311182342e-11  1.9869289573678052e-11  2.4599572271885888e-11  2.1084450511356721e-11  2.4621523572328604e-11  2.4526380573098729e-11  2.1468957492410657e-11  2.2220825663732602e-11  2.1530366335303995e-11  1.9726406282988022e-11  1.9750291234102311e-11  2.4285530156880634e-11  2.4980869249257386e-11  2.3702348022960787e-11  2.0141275439201586e-11  2.0644553786840016e-11  2.1920888506906379e-11  2.2289811083590086e-11  2.2058482555331370e-11  2.1743290122888149e-11  2.1332546950111954e-11  2.0837645596413794e-11  2.0951064009183908e-11  2.4010261418720682e-11  1.9283949606671240e-11  2.1036975560903487e-11  2.1119031827702431e-11  2.1521097815766787e-11  1.9645695184397824e-11  2.0157168451934969e-11  1.9695298486729261e-11  1.9278500086989496e-11  2.0904826539471599e-11  2.0925874144974933e-11  2.4401540825824035e-11  2.4363374480092613e-11  2.2697989171778167e-11  2.0488667158027597e-11  1.9793843025147291e-11  2.2548033853926862e-11  1.9627957868816281e-11  2.0221237215774537e-11  2.3644525713202233e-11  2.3439333540128362e-11  2.0108561549741035e-11  2.0697592825918599e-11  2.2463657413337028e-11  2.4771547829427801e-11  2.1552106035396626e-11  2.0300985572688248e-11  2.0349407664829906e-11  2.5740561703024109e-11  2.5676985707577295e-11  2.5614714966097980e-11  2.2044269201568930e-11  1.9618408546411467e-11  2.2273820656207481e-11  2.4946591190448651e-11  1.9634865017015827e-11  2.0253809306594852e-11  2.3108740222804980e-11  2.2487919207349596e-11  2.0988457084840782e-11  1.9565044877086508e-11  2.2993406359435513e-11  2.0286713707481262e-11  1.9667404801068982e-11  2.5014802932229629e-11  2.3235266857847807e-11  2.2612105222487506e-11  2.0336130383944237e-11  1.9621013331475359e-11  2.2355303301111789e-11  2.1856807078873204e-11  2.5419440820576397e-11  2.2925641228752675e-11  1.9316478561484164e-11  2.3705335226898899e-11  2.4657266092810576e-11  2.3696563583295611e-11  2.2356131429680449e-11  2.3938583506485448e-11  2.3877697849214185e-11  2.4372069495402089e-11  2.0354459855859425e-11  2.1857153008665713e-11  2.5743235166278279e-11  2.3701541696514808e-11  2.5256900023006225e-11  2.5338747367202302e-11  2.5237132236270846e-11  2.5478780141507961e-11  2.5481336142978674e-11  1.9632513650215968e-11  1.9276526564857340e-11  2.3458632158602074e-11  2.3379695482546553e-11  2.3642378982475127e-11  2.3466852794566467e-11  2.5756011746786161e-11  2.2076398770696133e-11  2.0097062327452865e-11  2.4544972467204180e-11  2.0602811400393647e-11  2.0360746974516032e-11  2.0221040968574577e-11  2.1624411751076793e-11  2.0509628922168370e-11  2.4385018033781965e-11  2.1141785262941340e-11  2.3302048280193767e-11  2.0398283692862084e-11  2.0130301183412662e-11  2.5888510107471415e-11  2.5878966030514734e-11  2.0987413740170407e-11  2.3697576828241668e-11  1.9988217972793557e-11  2.5825931074950299e-11  2.1105277540101412e-11  1.9588015171737838e-11  2.5172342278237085e-11  2.5135047078054773e-11  2.2535226080705887e-11  2.1195054999712332e-11  2.2887675374300865e-11  2.4409034766688582e-11  1.9427391758478106e-11  2.5729469735622131e-11  2.0505713753903686e-11  2.1249880864468376e-11  2.4618187259046551e-11  2.0814398939915665e-11  2.5465682596587207e-11  2.2628208751854166e-11  2.0902932216054335e-11  2.1309112682436410e-11  2.2060237193761873e-11  2.1085628856763029e-11  2.2412101917053244e-11  2.2826078864776322e-11  2.4048751244209152e-11  2.2219626168047163e-11  2.1561755210082100e-11  1.9978415805755689e-11  1.9612773935625899e-11  2.1023971805951252e-11  2.4000688794658421e-11  1.9773167376723699e-11  1.9627050785373855e-11  2.4146198643592426e-11  1.9417636767614456e-11  1.9441678133395429e-11  1.9452761056733900e-11  1.9895965591253529e-11  1.9578498887549805e-11  1.9471512741810900e-11  2.2774091899573998e-11  1.9476965272088706e-11  1.9300735526966743e-11  2.2141215199648233e-11  2.2688695156517404e-11  1.9285461632279114e-11  1.9294468626412626e-11  1.9296933919276896e-11  2.4603702707878494e-11  2.4210572810052074e-11  2.3771156918259322e-11  1.9430685189594170e-11  2.5242495813173302e-11  2.4902777122477761e-11  2.1553269238111839e-11  2.1629070990838087e-11  1.9591468924004159e-11  2.5805052018615883e-11  2.0569186106938441e-11  1.9291580771167072e-11  2.5462398244934325e-11  2.3210693421268739e-11  2.5806229139643432e-11  2.5673917857622920e-11  1.9423673547832617e-11  1.9290139789097897e-11  1.9193010313543586e-11  1.9250014997706500e-11  2.3292050417760769e-11  1.9440417702330693e-11  2.5485022595042309e-11  1.9311676190877407e-11  1.9330467848151584e-11  1.9288799499886677e-11  2.1769803188761765e-11  2.0706685080911481e-11  2.2849500357712527e-11  1.9762364849833460e-11  2.3264546121522767e-11  1.9841478850635293e-11  2.5345952738609022e-11  2.5305270739553129e-11  2.5483559651570377e-11  2.0381075764768089e-11  2.5618266551293284e-11  2.4847693439691244e-11  2.5426933800125952e-11  2.1412367701779889e-11  2.3975646944428793e-11  2.4411895921023211e-11  2.1130787078417692e-11  2.3301128632286554e-11  2.3065072377789199e-11  2.2833179834920361e-11  2.3778361096663268e-11  2.5269669895397144e-11  2.5493234689492690e-11  2.0315119249286152e-11  2.1985612769606635e-11  2.1716453244483258e-11  2.0677885337111178e-11  2.5135188118724772e-11  1.9660836271421787e-11  2.3140784706994146e-11  2.1313467717644687e-11  2.4229770309929944e-11  2.4755814423967104e-11  2.3275591608779376e-11  2.1519351145339705e-11  2.3338391526047154e-11  2.4515930609041442e-11  2.4316131751623563e-11  2.1683559870038267e-11  2.0152527974857113e-11  2.4850056724657253e-11  2.0740377188741580e-11  2.0495339735568768e-11  2.3363148470982377e-11  2.2553025103384025e-11  2.4901380613901696e-11  2.2374030510978680e-11  2.5288543540233283e-11  2.0370561511006285e-11  2.2650014467363168e-11  2.2501868575145332e-11  2.0980745517196725e-11  2.1663211928835728e-11  2.1540794847491655e-11  2.1135534266781184e-11  2.1184817568368126e-11  2.0871752552482534e-11  2.3547680263512369e-11  2.1299025723767212e-11  2.2274687922014814e-11  2.3789711607330818e-11  2.1959952397965258e-11  2.1799451014414606e-11  2.0047857905869850e-11  2.3223720188843166e-11  2.2048969942414291e-11  2.1890017966330888e-11  2.1177715265646182e-11  2.1527464177138875e-11  2.2960357670507978e-11  2.2856688656462641e-11  2.2482189639363871e-11  2.4240979327426829e-11  2.0690512818448341e-11  2.0446760121869022e-11  2.0396835867200041e-11  2.0625913334484023e-11  2.0824302295892500e-11  2.0436819687744701e-11  2.0265520880021476e-11  2.2906151124250143e-11  2.3309677716458777e-11  2.0400932540387314e-11  1.9701376918408440e-11  2.0637333892248020e-11  2.2525649355557361e-11  2.3469648758111747e-11  2.4123644805761720e-11  2.2807193484523540e-11  2.1347079551002709e-11  2.4941186745125614e-11  2.3694341033722890e-11  2.0139842118912008e-11  2.5059559039989190e-11  2.1773264419917262e-11  2.0905863241389628e-11  2.0712079311440955e-11  1.9667230055018980e-11  2.0917517439485049e-11  1.9811371367367751e-11  2.3440525309217905e-11  2.2879901509760674e-11  2.3516936523194457e-11  2.3878718314065640e-11  2.1561549913274110e-11  2.1424073575031238e-11  2.2119570552821639e-11  2.0089694651715306e-11  2.4106400649597020e-11  2.2888196693711001e-11  2.3456677612776513e-11  2.3668736443187605e-11  2.0371802796941836e-11  1.9700485587058071e-11  2.1527299751270901e-11  1.9703443764874126e-11  2.1487288137871521e-11  2.0120799706744304e-11  2.0055030681299175e-11  2.1041524551041807e-11  2.2944597315344018e-11  1.9963113883982115e-11  2.1037122646255829e-11  2.1546420848850005e-11  2.0273138193464705e-11  2.0594130043009685e-11  2.0849083226708032e-11  2.0182429115993271e-11  2.38846279118