<?xml version="1.0"?>
<VTKFile type="UnstructuredGrid"  version="0.1"  >
<UnstructuredGrid>
<Piece  NumberOfPoints="6486" NumberOfCells="12696">
<Points>
<DataArray  type="Float64"  NumberOfComponents="3"  format="ascii">0 5 0  0 0 0  5 0 0  5 5 0  2.5 0 0  5 2.5 0  2.5 5 0  0 2.5 0  2.5 2.5 0  0 1.25 0  1.25 0 0  1.25 5 0  0 3.75 0  5 1.25 0  3.75 0 0  5 3.75 0  3.75 5 0  3.541666666666667 1.458333333333333 0  1.458333333333333 3.541666666666667 0  1.875 1.25 0  3.75 3.125 0  1.284722222222222 2.326388888888889 0  2.683189655172414 3.767959770114943 0  0.9375 0.9375 0  4.0625 4.0625 0  0.7252209595959597 3.026357323232324 0  2.763480392156863 0.9129901960784315 0  1.875 4.345238095238095 0  4.345238095238095 1.875 0  4.192708333333333 0.8072916666666664 0  0.8072916666666665 4.192708333333334 0  3.368055555555555 2.326388888888889 0  0.6837606837606839 1.738782051282051 0  3.285485245626782 4.324328415208927 0  2.551239698778062 1.693130150610969 0  1.827256944444444 2.868923611111111 0  3.464875022477093 0.6813924607921316 0  1.942880513719175 2.059558626187995 0  3.04563492063492 2.971230158730159 0  4.375 3.4375 0  2.13639445139758 0.5994472256987903 0  4.272228422619047 2.606956845238095 0  0.625 0 0  0 0.625 0  5 4.375 0  4.375 5 0  0.6400043240752655 2.384646170113389 0  1.347691225855598 1.660875475110776 0  3.515783617857982 3.723905460714006 0  3.125 0 0  1.875 0 0  0.625 5 0  4.375 0 0  5 1.875 0  0 1.875 0  0 3.125 0  1.875 5 0  5 0.625 0  0 4.375 0  3.125 5 0  5 3.125 0  1.489644181965304 0.6007147273217681 0  2.054597701149425 3.742302955665024 0  2.662520990197781 4.39452575763237 0  2.415835363784578 3.165530021913244 0  0.8679986894865213 3.602373689486522 0  1.267459753787878 2.886186079545454 0  4.099702380952381 1.365327380952381 0  1.316964285714286 4.438244047619047 0  3.7915135293491 1.959691594758709 0  2.875141124191255 2.118761176511833 0  3.00418010501169 1.397414179299248 0  0.4081721322167092 3.410647930198662 0  0.4166666666666666 0.9375 0  1.014190407998288 0.4422301359994293 0  1.383260571305984 1.162718286082048 0  4.53125 3.90625 0  4.453125 4.453125 0  3.772848162504192 4.48678272083473 0  2.8125 0.404329517041716 0  0.4538690476190476 0.4538690476190476 0  2.305461739347387 1.04517007574828 0  3.771263799175824 2.624190260297553 0  3.229617768018734 1.809956994202883 0  3.780190884441317 1.025307111692601 0  4.646337365591398 0.9375 0  4.537623451379149 0.4609485750426037 0  1.200477888421151 3.934852888421152 0  0.3536626344086022 4.0625 0  0.4623765486208503 4.539051424957397 0  4.0625 0.353662634408602 0  4.560525106689535 1.390989100915847 0  3.958439078571988 3.619844539285994 0  4.672619047619047 2.1875 0  2.1875 4.672619047619047 0  1.862808494877602 3.325947624431087 0  0.3268135998175443 2.8125 0  4.674181280189791 2.8125 0  2.283233994935276 4.138623547175983 0  0.9375 4.677879119362977 0  3.08488061581743 3.469889594488945 0  3.113427375573758 3.913955730709506 0  1.652847799068813 3.950848935641292 0  2.932652662909449 2.550542739521724 0  3.311350648514189 1.088831994878698 0  0.6770833333333333 1.295851139601139 0  0 1.5625 0  1.047214787840024 1.96818092308125 0  4.183331482095785 3.03958703580843 0  3.4375 5 0  1.071307777252521 3.246275861010018 0  0 2.1875 0  0.386576856303419 2.03125 0  1.713862716483534 2.439783116849799 0  1.775396256975935 1.665976816304977 0  2.231236976948428 1.443917394671254 0  2.373900732409897 2.086930260150635 0  4.114918237574474 2.221646174618671 0  3.661302567757379 4.099620139144836 0  3.378215938602977 2.734494874063393 0  0.9842097536079312 2.597286741306247 0  1.642795138888889 4.672619047619047 0  4.0625 5 0  2.099458800960004 2.567446522665629 0  2.616202751603346 1.297895893940078 0  5 4.6875 0  0.9937554350075428 1.512592975947215 0  2.8125 5 0  3.002695327068194 4.614055254615477 0  3.205627424097207 0.3852436382721472 0  1.678616581261621 0.927556612265266 0  3.365326698305438 3.196943731162083 0  1.554834936170314 3.120009882655813 0  3.108408340729323 0.7797187795784133 0  3.684368918102174 0.3728877601163941 0  2.716214835303553 3.39276351922003 0  2.37718583984784 3.551973401560441 0  0.3750662445374837 1.52191994866787 0  2.679073487930202 2.844160731602957 0  1.557635869750078 1.991068682985722 0  1.812595698561088 0.3839273018252746 0  2.512014721281916 0.6320641118792227 0  2.1875 0 0  2.349973454443689 0.3189980586887866 0  4.6875 3.59375 0  4.636052949022233 3.178355898044465 0  4.6875 5 0  3.345485909784306 4.665765449101383 0  0.536727472389443 3.749603193819277 0  4.349541499640203 1.116201826262156 0  2.886559045931982 1.774013674579691 0  0.6770833333333334 0.7142857142857143 0  1.5625 0 0  4.120842096538671 4.628726497527622 0  2.176157474177018 1.793470423744689 0  2.175650736889416 2.909863021769539 0  4.036616464259081 1.709699085170981 0  3.887974623473683 0.6492597046022868 0  3.4375 0 0  3.70675699592552 2.289666624772415 0  4.697265625 4.208984375 0  2.815177577303495 4.085937578239174 0  4.672619047619047 1.730733296184288 0  4.6875 0 0  5 0.3125 0  0.3125 5 0  0 4.6875 0  0.3276089296588581 2.484526834811734 0  0.712433309515852 2.065138854645612 0  0.6376435912223634 2.711473454001295 0  1.184991292170422 0.7222504400947201 0  1.31884329779317 0.3206944232264773 0  3.683609198994263 3.44428698533042 0  0.3125 0 0  0 0.3125 0  4.231797269642997 3.789141808928991 0  1.564375596050781 1.425998687184973 0  2.007640894175573 0.9032106925568466 0  0.955125897558294 2.276666098587227 0  1.43898735721003 2.611310720271951 0  1.954491523717513 4.040700257877075 0  1.752947649777421 3.652439445419346 0  2.509575750247638 4.678021307664052 0  4.687194709705067 2.499965519538002 0  1.5625 5 0  0.9375 5 0  5 2.8125 0  2.1875 5 0  5 1.5625 0  5 2.1875 0  4.0625 0 0  5 0.9375 0  2.8125 0 0  0.9375 0 0  0 0.9375 0  0 2.8125 0  0 3.4375 0  0 4.0625 0  5 3.4375 0  5 4.0625 0  4.010848109290813 3.306446973933037 0  0.3077461147713075 3.119700563473354 0  4.6796875 4.6796875 0  2.333079012424948 3.845757959077508 0  0.7829771267899832 3.317744656243421 0  1.159100632608513 3.532487125138763 0  0.799066251840424 3.893573750162776 0  1.57326499580282 4.255438189102632 0  0.7309366047093668 0.2991402264438908 0  0.3054777494262156 1.223275888123843 0  4.027475154280377 2.78211326942427 0  2.35270874745988 4.426658168476266 0  3.474236283732569 2.021154281686229 0  4.401414236174444 2.329446628171927 0  3.39403781747337 3.987097102903034 0  1.077524329801934 1.214100792470484 0  4.065611571711903 1.066085524514197 0  2.165399002716117 3.335637450367864 0  3.007639563081306 1.093684039371638 0  4.030818285732145 4.351883315180857 0  3.504115222530889 1.739284194222036 0  1.224503368215566 4.712091441401919 0  3.805634204685714 1.321528442399996 0  4.319233123479386 1.573547993867769 0  1.024007670021325 4.394604704797005 0  3.776400432023095 3.839003324979723 0  2.991819819453308 4.320567175146181 0  0.9782797534072181 2.886406017887129 0  1.763835134082104 0.6602345487826022 0  3.765182288741625 1.631193038541544 0  2.267959593989681 2.345053543725764 0  4.412434895833333 4.168294270833333 0  4.4072265625 4.7255859375 0  2.791493971314009 3.11210833271929 0  3.408766223032414 3.469500900677365 0  1.915147569444444 4.725484476461039 0  2.070301968506271 0.2605666686358055 0  2.767932250651506 1.530295992695836 0  3.280065043173439 1.364863281105779 0  4.45101570110842 2.974157152713635 0  3.521928862999512 2.96990445010402 0  2.552921961347576 4.008414007169315 0  0.2682955376854191 3.657555015841003 0  3.084522868361304 2.310593316718068 0  2.669255823227708 1.939379494498064 0  2.615884629473921 2.238841231570381 0  1.405652091971449 0.8877813821442277 0  3.25151486618811 3.68536115104276 0  1.963741569810629 2.331207252264507 0  4.017297980292599 2.486269171379106 0  3.869168920841219 4.748188103831625 0  3.596868753579134 4.77342723825056 0  2.41262958240343 2.764128584995838 0  1.266750578673391 1.404747710001619 0  1.559243962241121 2.85146506328516 0  3.128799423834764 2.052081657715259 0  0.6770833333333333 0.9778025793650794 0  0.2083333333333333 0.78125 0  1.978224492765132 3.087074731032578 0  4.051448850909273 1.969392119104174 0  1.320577095006813 4.172234780971559 0  3.214261103850064 2.534397293281829 0  0.2635729089754111 1.779234736680035 0  3.510775680035133 4.460728640112889 0  2.603081405968802 0.2432579385496493 0  2.866341315154884 0.6662105505481998 0  3.000919221100777 0.2270278495648781 0  1.298858304121393 2.05917319923859 0  2.020292299736597 1.589794568392338 0  0.7401688396476035 4.470780315741533 0  0.6721783535561408 4.733125588707921 0  3.753712482075402 2.874301339727514 0  3.557348205914658 2.491958694539413 0  1.094565978195436 0.2011034254079851 0  0.9338148378011396 0.6833568465908735 0  2.945530578578538 3.701798332963805 0  3.111707186654356 3.216904195825605 0  1.341791111822685 3.293123262233967 0  1.632939924064587 1.184895891095613 0  0.6335477978936732 3.517393619499591 0  0.5576014611130192 3.210998966942492 0  1.564344196470102 0.3630498725895039 0  2.75362450242839 4.626680495816594 0  3.571304405229554 1.192452351107437 0  3.522934592621944 0.9359134489437148 0  4.453125 3.671875 0  4.765625 3.828125 0  1.055906321410838 4.14310472322957 0  4.795146539102229 0.46875 0  4.767156345199235 0.7178596932040019 0  0.2048534608977711 4.53125 0  0.232843654800765 4.282140306795998 0  0.5393715189906129 4.270810883024032 0  4.329922600274667 0.2750645887059072 0  4.275515096738972 0.5448389557295173 0  4.477747423652795 0.7252838358993123 0  0.2002829820452772 0.46875 0  0.4352678571428572 0.6956845238095237 0  0.5007241582667088 0.2123388122114133 0  4.672890923830735 0.2500902110494848 0  0.4308009280819452 4.783624996516437 0  2.104871305393774 4.438653689007242 0  0.2274454167838428 0.2274454167838428 0  3.446466574593436 0.4359605369011901 0  2.12354112127588 1.217588426759619 0  2.309175236825235 0.7888355970690434 0  2.556178570281936 1.054299163237582 0  0.578683248637
[...]
<PointData  Scalars="f_16-2"> 
<DataArray  type="Float64"  Name="f_16-2"  format="ascii">-5.6170827439636485e-45  1.1379371174055521e+05  1.2678646887782470e-44  2.9789134411825095e-67  1.8752907859051284e-18  -5.8955492089632520e-50  1.4162670258508998e-52  -6.7931636738346901e-19  -1.1577882183300155e-30  1.1978260338670174e-04  4.3307183419706860e-07  -3.5454575338760769e-49  -8.9431607426512749e-33  -2.2204016078121551e-47  -7.5845577618126010e-30  -2.5693658586893575e-58  9.0668580688477318e-59  -9.9240442181132089e-34  -2.1691113946503771e-33  -1.1715669175537984e-16  4.0233035763767322e-43  4.5565924143144751e-20  6.7726275980289880e-42  -4.5353566471676683e-06  1.5568903463057079e-53  1.4442543820369446e-25  -5.4408600066290439e-24  1.8676044231285682e-42  -7.5080756247113890e-45  1.0656538837571098e-38  -1.2639361728370041e-39  2.1131043266771219e-34  3.3994214336436489e-11  -2.4917134140286276e-51  -4.0128505293094487e-26  3.3722410607081907e-27  1.0955208899564976e-31  3.6853525275352971e-21  3.9730127515562937e-37  -2.9512673680567389e-50  -1.1633167205859545e-16  6.0097527906904359e-45  7.0131764171004451e-01  6.0339374260789180e+02  3.1420962577940093e-62  5.2000154137834090e-62  -4.5992603239767337e-18  1.1119847956234659e-14  -2.2978767484437699e-46  -1.3153735125614073e-23  4.9771891023238882e-14  -3.2224463891620057e-48  1.7082454936632159e-37  8.5576313072430925e-51  -6.5828775513397380e-11  -1.2884395791413333e-25  -2.4363397998161187e-49  3.1269172451228735e-44  1.4242677951287190e-38  1.9261256997683193e-54  -3.6078317941667700e-53  -5.5427721168100024e-11  -1.2030643792143830e-37  9.4280017123829634e-47  -9.8069306519740460e-34  -5.6320108484772407e-33  -7.1971503597703137e-26  -4.6803784464644176e-40  1.1729062770788812e-43  2.8857515636284775e-40  2.1992133559114917e-31  1.0816814189121310e-29  -2.9682430691221654e-31  2.5691979396878825e-02  3.6688599640765974e-06  -6.4914125769882615e-13  -1.4537820000826263e-56  8.0123675480207330e-59  7.8294872704097855e-54  1.8635860556461116e-23  9.6498551423258405e-01  -2.0893538247070090e-21  -4.3391812673803736e-40  -6.6011173113803163e-33  1.4546211224098547e-35  1.5385209189263763e-41  -3.4200426611046331e-41  9.5791394441123854e-40  -8.6542568495375700e-38  -1.1105310945242932e-42  -2.6472824808947759e-35  3.8110760562838522e-45  -5.2143239473094632e-50  6.0443057902372327e-47  7.1588319213962553e-48  -4.1327783001138729e-33  1.2536035985654784e-22  1.5532354084320037e-49  3.8031898020933061e-44  -2.4305691025789245e-45  -8.9359095352026513e-41  -1.1783956420206888e-44  2.2005716172333396e-37  -8.4527098106588666e-34  -5.5739828574674640e-31  -7.3789751335510780e-08  -1.2422506592005757e-08  -1.2636704429826342e-15  -5.8496275622402815e-47  -4.0926503703028991e-57  -5.9013318383377153e-29  -1.7454742473965667e-14  1.9906507701323319e-12  1.7846987592621114e-23  9.7018838244812428e-18  -6.4770235095008183e-23  -2.2605633568409958e-25  -1.1093136273311038e-41  -2.2223421536859725e-49  7.0243858753486180e-37  8.8841070693709929e-22  2.2024147467325343e-45  -1.8463128356761706e-58  2.3919585553858248e-26  9.1725725883801544e-26  1.3376282433360052e-65  -1.1538961116274303e-11  3.8553637315369192e-54  -2.3540957598258613e-50  -9.8870595973924061e-27  -7.1916272056793277e-14  -9.1221935096370496e-42  -7.2417136642938554e-29  -7.0550937734352524e-28  -8.5870327749767395e-31  2.7956088327404353e-37  -7.8153618911862300e-38  7.4350473068821063e-07  -6.0385040628534018e-34  1.3061546791159122e-18  1.1518121012483893e-13  3.4009276421488979e-20  8.7371393245798552e-17  1.9916878822267701e-18  2.0835372839672353e-54  -1.9281325232953896e-50  1.8843394455812670e-65  -8.3408649962592778e-54  -1.7178037207922134e-35  -2.6322791007520568e-43  -3.4471042017426016e-28  3.8427581484808118e-03  3.1700351119216389e-10  -8.3228721281715752e-58  8.2983124648201852e-21  -2.5945561758723429e-29  1.3996380620012599e-40  -4.9533818159825513e-34  -3.9350988108409091e-27  1.5392280054076900e-37  6.7098378280694453e-59  -1.8309436992987972e-44  -6.4745230405321643e-48  7.0436308214626034e-40  -3.0575255039068442e-44  1.4483617071168924e-45  -4.2634565641336236e-42  -2.3568265889681483e-18  1.0921844272760937e-14  1.6007181678106373e-21  1.2127743064222976e-07  3.2992922457705653e-08  -1.5512380843656449e-44  1.1797625746976178e+03  2.1401526065555256e+05  4.3082987491660945e-52  1.2287182436931023e-14  1.5534486424100698e-16  -2.1386268691119858e-18  -2.7523653031454228e-23  7.4966503529629682e-41  8.1605460890911578e-35  -1.3935458570490062e-49  1.8399300975622531e-47  1.7758719782431176e-49  1.4938770983918610e-48  2.4393873357683409e-52  9.3734338943794672e-52  -5.6223951877859944e-50  -1.6599913069143834e-50  1.9580651489346933e-33  5.9375719861772036e-45  -8.0658729972672749e-21  4.3499379142283691e-03  -6.8491824908375643e-01  -2.1950394639614463e-22  -9.9706266029868380e-29  -2.8109573121684155e-35  -2.6627196507372158e-55  1.4627109277189264e-60  -2.3556681109801101e-46  2.4683892522550384e-26  -3.4587948477476441e-63  -2.5117729268304375e-39  -2.6892065717849872e-29  -1.3144923774139301e-32  -2.5238771281298832e-36  -3.5003002579395857e-42  -1.1590411000909098e-02  7.9538895303654894e-04  -5.1823425979377846e-44  3.7290880752951998e-47  -5.7056655795699473e-35  4.3572757134805304e-43  2.0020023852455063e-46  -1.2920467111672974e-09  3.3798987408821329e-39  5.6370670997587099e-34  -9.2454405381430434e-27  9.1661776097415029e-55  -5.1635709511021274e-35  6.0179832743498874e-46  -9.8205130589799036e-39  -3.6819915387525681e-43  2.5529038646019665e-41  1.7545689944453520e-49  7.9451850580175224e-48  -1.3323848462608801e-24  1.0154966569401434e-13  -3.3483620907181813e-38  9.9692528166645042e-27  -3.0194952304938946e-56  -1.4793403702701879e-60  4.4445904389888604e-36  4.6635378642275840e-44  -6.3014927473454707e-47  5.4126220794581038e-16  3.6290125582068122e-26  1.3298324751501374e-31  1.1410473739812358e-48  -2.7042487067658782e-40  2.6266890017204725e-42  -1.5592086252393115e-33  1.4631127345919442e-32  1.8060602935558451e-27  7.0725459234909989e-29  -4.7839682560368559e-11  5.5684534328124891e-43  1.0929888579414324e-22  -4.2639933985463242e-40  -3.7842085729745153e-56  -4.6597372138009350e-56  -3.9677035801970450e-30  1.6584924897800748e-11  9.6324928109303236e-28  3.4493159401431448e-32  1.1396953585439737e-04  4.0006162409763979e+00  1.5395563128719791e-30  1.0774542045621454e-41  -7.4283184765729069e-40  4.6131890832096604e-35  2.3313891388840089e-10  3.5350341358745003e-53  1.7572173827460102e-21  -7.4849200393926833e-25  9.1326149856568507e-25  2.6821273453404964e-18  1.1276638410467627e-18  9.0199101627692791e-42  -5.6336652469347346e-45  -2.2825573465720489e-41  -2.8436229692289070e-37  -2.6122934527999414e-05  -3.5324652777398653e-06  2.1765047701711891e-41  -2.8981057343126310e-39  1.1160048136637121e-30  -2.0349480497144421e-13  -5.4997489412314350e-33  -5.9740420562875082e-28  2.5055434956612467e-11  -3.1984604062460724e-49  -2.6760664205848260e-34  -3.4477866973428455e-34  -5.4836902529449200e-54  -4.3563607835957482e-57  -3.0992873254473279e-41  7.1726063151728190e-42  -8.7752309863548845e-43  -9.0988173164687050e-41  1.3327114406292409e-38  -2.2711688219634714e-40  -2.7822294556316159e-37  5.3320902274359810e-38  6.1359229125545401e-39  9.8585858470739040e+03  6.3533600287630110e+00  -2.7481523822751630e+01  1.0724772811023080e-40  2.7456465593429315e-45  8.0943294384342066e-46  1.1402053953285882e+05  -2.0033119442521112e-31  2.1248031535917156e-19  6.7113293461661636e-19  -1.6194307471087454e-23  2.0933077053406812e-38  -2.7359379989380115e-38  1.5547328528399470e-21  6.3762125972625336e-35  3.8224611007528682e-32  -4.1435492313337651e-45  -8.1538831353404760e-49  5.7769439045512428e-61  7.5421394798721960e-10  -2.9077271502694715e-36  9.6595566908221122e-36  2.1693291450123054e-30  2.9632377114064710e-49  5.4768072843608493e-36  -6.4457011643363243e-35  2.2198460408308269e-13  2.3353601908517599e-31  5.3226706959447320e-36  -2.6990976808110826e-42  -1.0820010921885935e-12  3.3431556256633619e-48  4.8136160005659331e-44  -3.0391495718574250e-16  9.6584111865296615e-50  5.4503324893287728e-07  -2.5142098803061800e-22  -4.7239274187738559e-49  -7.7425566030917881e-51  1.8782949287652033e-36  -9.8430583365987616e-51  2.3288566193463056e-24  -2.2453707344955523e-22  6.2456314258260047e-54  6.0307272857261302e-47  -3.2645981191476019e-20  -4.1811468585110442e-27  8.5759924773725717e-34  5.4164037931811193e-52  -4.1503417460811154e-29  3.8911472393206118e-52  -1.3439294038708142e-47  6.8040134403772271e-31  3.8433377606492382e-47  3.2132343732717656e-25  3.2210162783152156e-09  8.1582802856154644e-07  -1.2250578547123102e-04  9.6088908613882285e-31  2.9180008225960800e-28  -9.3647775656465415e-17  2.0580673375370243e-49  1.4087809707526495e-49  -1.2155192927024898e-51  1.1848049221334400e-43  -8.0376166062120938e-65  -6.1892976797171573e-44  -5.3370988158952028e-45  -6.8103302090220552e-26  -5.8596323003549557e-60  4.1580064533004878e-28  -2.2687247218938004e-50  8.0108525342572733e-41  -2.6590402181725648e-37  3.9110154929383624e-34  1.0719762165150822e-24  3.3782724435054584e-04  -4.7227877544164010e-56  -2.1299378296704525e-38  -3.2291038300879734e-24  6.0967872651023749e-24  -1.5577112668662213e-51  6.9293899668635033e-17  5.6077617374295903e-16  -1.8099165594607310e-15  -1.8773811539943386e-19  7.5777105281445393e-39  3.2367548108139147e-25  3.7894178971963597e-36  4.3938746412372620e-32  4.1465107468412429e-40  -1.5097413891628016e-42  3.3858545303053703e-47  -9.4211117290152311e-31  -2.2496982935917134e-20  1.3961960346611267e-09  1.3457294396632182e-43  -1.2791098892500005e-10  6.3888178607869234e-19  -6.6036721573280804e-54  7.6640080761471343e-35  -1.3077502240843000e-29  -3.6066062725861320e-52  2.3837478238431343e-26  1.0733118184945052e-02  3.5251180170783631e-13  -2.9270309709866853e-40  -4.4882207122168726e-44  3.3461248811224359e-33  3.7684685472999207e-42  -1.0446568872311940e-52  -1.5334603568241158e-27  8.6343760166289587e-14  6.7973286143165567e-42  -2.0067924237004448e-22  -2.6311369282952376e-24  -3.5546840167883403e-23  5.8605369213379253e-41  -7.5937964413722919e-31  1.1279789832526961e-26  5.2280432559077376e-39  -1.5222911192862808e-09  8.3697468596443592e-19  1.5664316363816954e-48  -1.1763137331303845e-30  -8.1706695512626161e-43  -2.2862112918607397e-48  1.1913165312005443e-50  -5.0855863992868988e-24  -2.5644814631140283e-19  -5.3267814008140156e-35  1.4554106574082108e-42  -3.9808530767584942e-48  -1.3747571660677625e-51  9.5572618303630221e-10  -2.1898708242230708e-30  2.0383707097966569e-47  1.2598149675179971e-44  -2.9401643778352211e-35  -3.3592978821837806e-20  2.2098859598792101e-38  -2.1894650067505216e-22  8.7839325576853377e-47  8.6027466928137266e-10  1.4202508158875071e-45  -5.4720146314497962e-31  -1.3749163639098677e-22  -3.7946693726051480e-35  -1.4230240352391715e-63  1.4466204841189114e-18  1.2536459821807172e-41  1.1254981719999104e-28  -1.1984083752217414e-13  -8.0870245226107135e-39  7.0903613612751726e-35  7.6926795213485864e-15  3.4019584355176103e-48  2.9133318663002530e-58  1.9571588874913325e-47  -3.7504154617675518e-51  -8.5117474509080144e-19  8.9699022052778461e-12  -4.4413822301748414e-29  1.7763471273408726e-09  -1.8118937620481836e-40  -1.5360228268870899e-28  -2.6867988670110054e-19  -6.4745706225790638e-36  9.8430364350418494e-36  1.6418413776676780e-23  -7.7673976404466450e-46  4.2123671639934875e-14  1.2199521278577056e-27  -4.6858141576050925e-07  -1.0082598614101003e-32  2.3798801376362459e-12  -5.1638423858501393e-16  4.0658604556405079e-18  -8.0252088100690182e-23  -7.7999935278551311e-22  -2.3458066034198584e-38  -1.2908428312946932e-40  -7.0422257060568896e-36  -9.8063972142104852e-06  6.6297894091424978e-48  5.1354055390876653e-55  -3.1832509287372127e-59  1.5931630132394806e-44  -2.3378923189900881e-20  3.3319438577067956e-56  -1.4513626278644677e-13  5.3718967563858746e-16  1.4412990773886148e-21  -1.1099134634507788e-42  3.3118621469130962e-27  4.6579278211258798e-25  1.5090013841274474e-48  4.3119235642561097e-31  5.1264580072077185e-51  -1.7822228847621541e-49  1.6607029615283085e-39  -6.0781023250702761e-51  -5.6492185944875871e-35  2.8789521816442824e-55  2.0902471391475871e-38  1.3655732163249527e-32  1.7418391947589372e-27  1.1934207383350345e-01  -1.3434712759834521e-45  -2.1616378510304182e-44  1.5928979960630058e-49  9.9040843863352794e-15  -7.9992259330700778e-36  -2.1868603130845101e-33  5.6722814479001410e-36  1.6618657740975143e-58  1.7993047347927582e-15  -3.0408603460272764e-44  -1.3293200006740523e-17  3.9799482816921985e-16  1.4347702452450840e-39  -1.3044444334789408e-30  -5.9437880651190239e-38  -2.1207172128528212e-48  2.7020995613216533e-46  7.3079111524739628e-17  1.3657845295461727e-11  8.4822703584476053e-31  1.7840104768205067e-46  1.6020782654694385e-42  -2.4890202032846241e-35  -1.3610265156910270e-35  -2.0147691859672364e-37  -6.1731659414886739e-45  -8.4045008173073311e-36  2.7000189798353109e-52  -2.8777457633228484e-41  -2.6193454186787875e-20  -2.3395045663199491e-48  -3.7810156157356669e-44  1.0643100479580828e-40  6.0542119491369125e-40  -2.4974662210489371e-57  -3.6246264816458022e-55  -6.6582033621570991e-54  -6.4523885234748367e-44  -2.1958842057183266e-44  2.5122431077563232e-39  1.7662005469231855e-16  1.0495586108585206e-16  -3.0406979902899142e-33  -6.8455026595968839e-53  1.8999608630039509e-55  1.8590926162992798e-36  -2.2978318347378984e-60  -9.2543023176173366e-59  4.3412067025933962e-26  9.5422303845374619e-29  2.6142034633455930e-41  2.5310533021879841e-40  5.4373906993863807e-34  -7.2424012943953741e-17  1.3295792513025947e-46  -2.0944760169865873e-46  -7.1514862257844949e-40  -3.3732260664169816e-01  -3.8673632320066777e-03  -2.8178327720118098e-04  -8.4190163189839279e-38  1.4966339651921475e-42  2.0919708912210030e-41  -1.4247322316985303e-09  1.2037507591985939e-47  6.5463122660365034e-43  -1.0231858141181472e-25  1.4631976646730784e-31  -2.4629187044230904e-45  -1.0187360441841722e-63  7.4964110257553425e-37  -6.6119369067765957e-55  3.9269193389059312e-60  1.4085007526827564e-08  -2.9931071963108067e-25  -1.5999323048593841e-36  -7.3305197712343129e-46  4.5453839499035805e-50  1.8282514921799432e-33  -6.6602131362707930e-45  -8.7998229104468281e-08  -4.8144458122924464e-31  3.9066914239285217e-59  6.7028795710619012e-31  -8.4022405840608923e-13  -4.0237710547040637e-24  1.7656467086723824e-43  -3.2441494318534155e-21  -3.3751022204997771e-27  -2.7046431038635245e-18  1.5919113002433561e-46  -6.5715517199655460e-38  -2.0334193968940054e-01  -1.2848582186111203e-21  -5.4465330167687863e-10  5.4322999931104185e-07  2.3993444887296413e-10  3.6999145932031429e-06  6.4500642578620455e-06  -2.3031958977974545e-48  1.9917161209039795e-50  1.0808381366535118e-31  -1.8383645700097202e-29  6.8680642960824791e-29  -1.8999335329932493e-23  8.5692612053753635e+01  -3.7654335283209315e-45  1.7667155704808250e-48  -7.2050027556214575e-16  -6.3515562569196039e-54  1.3649625133215443e-42  -1.6020188283955022e-56  -6.6650859869561804e-42  -5.9202175688540397e-56  2.5626442334150176e-20  -4.0292755649002927e-50  -4.5664435046792434e-29  -5.3051851822924538e-48  -4.6562422540338342e-48  1.9304962593457949e+04  1.9895343877020132e+07  -1.7617167716943298e-52  -1.3530930011926217e-19  -3.5124791597475956e-63  2.6821840238728628e+03  -6.9079679531970044e-38  -4.5922415943728652e-43  -8.0153622486609285e-13  1.9858389978286834e-15  5.3813010061698035e-35  -1.6512062333117371e-46  -2.6769760547881817e-31  1.4588092621715372e-17  -1.4129657518604074e-58  -4.8390769073130849e-02  -1.3719476912944241e-38  -1.0374979244167494e-36  -7.0970721124585138e-15  -8.2250943489846794e-44  4.5377676746541418e-06  2.5929543443176647e-30  1.0691101185684463e-42  1.8468553814929742e-39  -9.2699122539396445e-38  2.7032330349872080e-53  -5.6701636569531420e-28  1.8046231939503271e-38  3.0476064584448831e-24  -2.8772509208031654e-40  -2.3146590768964904e-43  -3.7295773168022518e-47  -4.8718539940333365e-49  1.0337779579859913e-38  1.6939765553801435e-19  -7.3320786074693542e-52  4.7998794506454330e-51  1.2821780096162954e-17  9.0030646497504717e-63  -1.4734134529681963e-48  -1.9090857599787309e-60  2.2760183947248077e-43  -9.7439938445607601e-46  -9.9762579305706265e-53  1.2786881338438159e-28  -1.2596418083338682e-48  -5.5143120069466489e-54  -1.3205635358863892e-27  2.5715305416715173e-25  9.1878038117437307e-51  7.6457593138574714e-50  9.4155968570088135e-53  -1.1383449007979483e-13  2.5027620062762161e-15  2.4221630479898409e-20  -1.8084433593307604e-52  -5.3490956993501176e-07  1.9696168797414139e-11  5.0503872943645119e-31  2.2134886095331419e-33  9.8583953866563396e-47  -1.3410520691974137e+01  -1.1230986735406246e-40  -8.7164142675604092e-44  -7.0866925558300326e-05  7.5007383682586383e-23  3.6625832044273790e+04  -2.1461115575425243e+01  -2.8037951419960338e-58  1.6348448972300368e-64  -1.1685197213898515e-67  1.0323108012372860e-66  -7.9911268802853198e-24  9.1861604144131521e-53  -1.5387371463325776e-02  4.7607294389270263e-57  1.7320428961210506e-62  3.8814006114219535e-45  3.0034080157784496e-36  2.7304535868630153e-46  -1.5469341822455884e-32  9.0602329622730716e-49  -1.2393322916870784e-27  -2.1185429216546054e-50  3.0569409180767396e-10  -1.5933877087598403e-09  -9.1413806790528860e-08  2.2268074149619758e-52  -7.1289951821498429e-04  6.3401717429537618e-18  -1.0189561023959312e-04  1.9884082778679107e-39  -1.6916790754352489e-23  1.0364088125775523e-19  3.2991329128888643e-43  1.0077762929167302e-24  -5.4321454349223216e-26  1.0458636783547118e-28  6.6024742600832253e-21  4.7328009609384480e-06  9.6975862023266116e-04  -3.6138623625239047e-46  -2.1893896663789944e-42  9.4883683155217441e-39  3.2650776529394692e-44  2.6586366384176795e-12  7.7207104397531913e-51  -1.3810772151207098e-26  6.6274538716314068e-42  -6.4554116764079926e-25  1.1601586311228630e-13  2.5315670365775321e-34  5.0678566072681380e-38  9.8319342056627175e-26  1.0157385647697226e-19  2.7861234734077809e-21  -3.5138632625695167e-35  8.0208123707053171e-48  6.3212280373803819e-14  1.0848918412071888e-43  3.8649132767779681e-44  8.9623617975358064e-28  8.8298415851795157e-34  1.4937527958333873e-14  3.9618181107529787e-38  -1.8562334341252660e-10  -1.2096622974524707e-50  2.4680483524342777e-30  1.1367053054064096e-31  -2.0269712749580847e-49  -3.6428857757140554e-42  -7.8203753238186274e-41  1.1901579924858396e-44  2.4125140364358561e-42  6.8456804505783813e-42  2.2784818021848766e-23  3.4060735945105979e-42  -1.6912932704511354e-32  -9.2555282931171468e-25  -7.9522316975062655e-35  -8.3788446041805615e-36  5.4431186949489733e-51  -1.7447650209340439e-30  7.8273612159563130e-36  2.9622144354439310e-35  -2.6026125628490829e-39  2.6122424734455258e-41  -1.7800419135001770e-27  -5.3945845695561438e-30  -1.0295877957015625e-31  -3.2631135646407149e-23  -1.4638547882390872e-38  2.5717826257672668e-47  4.3949412497076016e-49  2.6758901242689572e-42  -8.4408136150230646e-40  9.7923272640825417e-43  7.0672006995743215e-52  4.8381137355124356e-37  8.3802710146434567e-25  2.4626895412204155e-49  -2.1911590700439554e-49  1.1845716771843997e-44  -4.8482294269503369e-34  3.0519414063006742e-26  -1.1535635251805176e-17  6.1841718621938106e-36  -5.3731952305044307e-34  5.6491127285608364e-17  5.3059976605030902e-22  -2.8361491114539646e-54  3.3411493102981371e-12  9.5749198574082234e-33  9.5518156202935170e-54  -9.9621105781702207e-54  6.3440144651591661e-59  -1.9524550581982935e-41  -9.6784873772771157e-47  1.8564575279355590e-24  5.1304421178886233e-37  2.5305808938800674e-32  3.4024963619157868e-21  1.2330726983620275e-45  5.6242095268345987e-48  2.7600128698439361e-34  -3.9662809516446033e-40  5.8174249625929484e-21  -1.7952408485743773e-33  -2.6000619521874117e-24  -2.7418130418098138e-22  1.378281