<?xml version="1.0"?>
<VTKFile type="UnstructuredGrid"  version="0.1"  >
<UnstructuredGrid>
<Piece  NumberOfPoints="6486" NumberOfCells="12696">
<Points>
<DataArray  type="Float64"  NumberOfComponents="3"  format="ascii">0 2.5 0  0 0 0  2.5 0 0  2.5 2.5 0  1.25 0 0  2.5 1.25 0  1.25 2.5 0  0 1.25 0  1.25 1.25 0  0 0.625 0  0.625 0 0  0.625 2.5 0  0 1.875 0  2.5 0.625 0  1.875 0 0  2.5 1.875 0  1.875 2.5 0  1.770833333333333 0.7291666666666666 0  0.7291666666666666 1.770833333333333 0  0.9375 0.625 0  1.875 1.5625 0  0.642361111111111 1.163194444444444 0  1.341594827586207 1.883979885057471 0  0.46875 0.46875 0  2.03125 2.03125 0  0.3626104797979798 1.513178661616162 0  1.381740196078431 0.4564950980392157 0  0.9375 2.172619047619047 0  2.172619047619047 0.9375 0  2.096354166666667 0.4036458333333332 0  0.4036458333333333 2.096354166666667 0  1.684027777777778 1.163194444444444 0  0.3418803418803419 0.8693910256410255 0  1.642742622813391 2.162164207604464 0  1.275619849389031 0.8465650753054845 0  0.9136284722222221 1.434461805555556 0  1.732437511238546 0.3406962303960658 0  0.9714402568595876 1.029779313093998 0  1.52281746031746 1.485615079365079 0  2.1875 1.71875 0  1.06819722569879 0.2997236128493951 0  2.136114211309524 1.303478422619048 0  0.3125 0 0  0 0.3125 0  2.5 2.1875 0  2.1875 2.5 0  0.3200021620376328 1.192323085056694 0  0.6738456129277992 0.8304377375553881 0  1.757891808928991 1.861952730357003 0  1.5625 0 0  0.9375 0 0  0.3125 2.5 0  2.1875 0 0  2.5 0.9375 0  0 0.9375 0  0 1.5625 0  0.9375 2.5 0  2.5 0.3125 0  0 2.1875 0  1.5625 2.5 0  2.5 1.5625 0  0.7448220909826522 0.3003573636608841 0  1.027298850574712 1.871151477832512 0  1.331260495098891 2.197262878816185 0  1.207917681892289 1.582765010956622 0  0.4339993447432606 1.801186844743261 0  0.6337298768939392 1.443093039772727 0  2.049851190476191 0.6826636904761904 0  0.6584821428571428 2.219122023809524 0  1.89575676467455 0.9798457973793544 0  1.437570562095628 1.059380588255917 0  1.502090052505845 0.6987070896496241 0  0.2040860661083546 1.705323965099331 0  0.2083333333333333 0.46875 0  0.5070952039991439 0.2211150679997147 0  0.6916302856529919 0.5813591430410241 0  2.265625 1.953125 0  2.2265625 2.2265625 0  1.886424081252096 2.243391360417365 0  1.40625 0.202164758520858 0  0.2269345238095238 0.2269345238095238 0  1.152730869673694 0.5225850378741401 0  1.885631899587912 1.312095130148776 0  1.614808884009367 0.9049784971014416 0  1.890095442220658 0.5126535558463003 0  2.323168682795699 0.46875 0  2.268811725689575 0.2304742875213018 0  0.6002389442105756 1.967426444210576 0  0.1768313172043011 2.03125 0  0.2311882743104251 2.269525712478698 0  2.03125 0.176831317204301 0  2.280262553344767 0.6954945504579233 0  1.979219539285994 1.809922269642997 0  2.336309523809524 1.09375 0  1.09375 2.336309523809524 0  0.9314042474388009 1.662973812215543 0  0.1634067999087722 1.40625 0  2.337090640094896 1.40625 0  1.141616997467638 2.069311773587991 0  0.46875 2.338939559681489 0  1.542440307908715 1.734944797244472 0  1.556713687786879 1.956977865354753 0  0.8264238995344066 1.975424467820646 0  1.466326331454725 1.275271369760862 0  1.655675324257095 0.5444159974393489 0  0.3385416666666666 0.6479255698005697 0  0 0.78125 0  0.5236073939200119 0.984090461540625 0  2.091665741047893 1.519793517904215 0  1.71875 2.5 0  0.5356538886262603 1.623137930505009 0  0 1.09375 0  0.1932884281517095 1.015625 0  0.8569313582417669 1.2198915584249 0  0.8876981284879677 0.8329884081524883 0  1.115618488474214 0.7219586973356271 0  1.186950366204949 1.043465130075318 0  2.057459118787237 1.110823087309335 0  1.830651283878689 2.049810069572418 0  1.689107969301489 1.367247437031697 0  0.4921048768039656 1.298643370653124 0  0.8213975694444444 2.336309523809524 0  2.03125 2.5 0  1.049729400480002 1.283723261332814 0  1.308101375801673 0.6489479469700392 0  2.5 2.34375 0  0.4968777175037714 0.7562964879736076 0  1.40625 2.5 0  1.501347663534097 2.307027627307738 0  1.602813712048603 0.1926218191360736 0  0.8393082906308107 0.463778306132633 0  1.682663349152719 1.598471865581041 0  0.7774174680851571 1.560004941327907 0  1.554204170364662 0.3898593897892066 0  1.842184459051087 0.186443880058197 0  1.358107417651776 1.696381759610015 0  1.18859291992392 1.77598670078022 0  0.1875331222687418 0.7609599743339348 0  1.339536743965101 1.422080365801479 0  0.7788179348750389 0.9955343414928611 0  0.9062978492805438 0.1919636509126373 0  1.256007360640958 0.3160320559396114 0  1.09375 0 0  1.174986727221844 0.1594990293443933 0  2.34375 1.796875 0  2.318026474511116 1.589177949022232 0  2.34375 2.5 0  1.672742954892153 2.332882724550692 0  0.2683637361947215 1.874801596909639 0  2.174770749820102 0.5581009131310781 0  1.443279522965991 0.8870068372898454 0  0.3385416666666667 0.3571428571428572 0  0.78125 0 0  2.060421048269335 2.314363248763811 0  1.088078737088509 0.8967352118723447 0  1.087825368444708 1.454931510884769 0  2.018308232129541 0.8548495425854904 0  1.943987311736842 0.3246298523011434 0  1.71875 0 0  1.85337849796276 1.144833312386208 0  2.3486328125 2.1044921875 0  1.407588788651747 2.042968789119587 0  2.336309523809524 0.865366648092144 0  2.34375 0 0  2.5 0.15625 0  0.15625 2.5 0  0 2.34375 0  0.1638044648294291 1.242263417405867 0  0.356216654757926 1.032569427322806 0  0.3188217956111817 1.355736727000647 0  0.5924956460852111 0.36112522004736 0  0.6594216488965849 0.1603472116132387 0  1.841804599497131 1.72214349266521 0  0.15625 0 0  0 0.15625 0  2.115898634821499 1.894570904464496 0  0.7821877980253907 0.7129993435924866 0  1.003820447087786 0.4516053462784233 0  0.477562948779147 1.138333049293613 0  0.719493678605015 1.305655360135975 0  0.9772457618587566 2.020350128938537 0  0.8764738248887107 1.826219722709673 0  1.254787875123819 2.339010653832026 0  2.343597354852534 1.249982759769001 0  0.78125 2.5 0  0.46875 2.5 0  2.5 1.40625 0  1.09375 2.5 0  2.5 0.78125 0  2.5 1.09375 0  2.03125 0 0  2.5 0.46875 0  1.40625 0 0  0.46875 0 0  0 0.46875 0  0 1.40625 0  0 1.71875 0  0 2.03125 0  2.5 1.71875 0  2.5 2.03125 0  2.005424054645407 1.653223486966518 0  0.1538730573856537 1.559850281736677 0  2.33984375 2.33984375 0  1.166539506212474 1.922878979538754 0  0.3914885633949916 1.65887232812171 0  0.5795503163042564 1.766243562569382 0  0.399533125920212 1.946786875081388 0  0.7866324979014098 2.127719094551316 0  0.3654683023546834 0.1495701132219454 0  0.1527388747131078 0.6116379440619215 0  2.013737577140188 1.391056634712135 0  1.17635437372994 2.213329084238133 0  1.737118141866284 1.010577140843115 0  2.200707118087222 1.164723314085963 0  1.697018908736685 1.993548551451517 0  0.5387621649009668 0.6070503962352419 0  2.032805785855952 0.5330427622570983 0  1.082699501358059 1.667818725183932 0  1.503819781540653 0.5468420196858188 0  2.015409142866072 2.175941657590429 0  1.752057611265444 0.869642097111018 0  0.612251684107783 2.356045720700959 0  1.902817102342857 0.6607642211999982 0  2.159616561739693 0.7867739969338844 0  0.5120038350106624 2.197302352398502 0  1.888200216011548 1.919501662489862 0  1.495909909726654 2.16028358757309 0  0.489139876703609 1.443203008943564 0  0.8819175670410521 0.3301172743913011 0  1.882591144370812 0.8155965192707721 0  1.133979796994841 1.172526771862882 0  2.206217447916667 2.084147135416667 0  2.20361328125 2.36279296875 0  1.395746985657004 1.556054166359645 0  1.704383111516207 1.734750450338683 0  0.9575737847222222 2.36274223823052 0  1.035150984253136 0.1302833343179028 0  1.383966125325753 0.7651479963479179 0  1.64003252158672 0.6824316405528895 0  2.22550785055421 1.487078576356817 0  1.760964431499756 1.48495222505201 0  1.276460980673788 2.004207003584658 0  0.1341477688427096 1.828777507920502 0  1.542261434180652 1.155296658359034 0  1.334627911613854 0.9696897472490321 0  1.30794231473696 1.119420615785191 0  0.7028260459857245 0.4438906910721139 0  1.625757433094055 1.84268057552138 0  0.9818707849053143 1.165603626132254 0  2.0086489901463 1.243134585689553 0  1.934584460420609 2.374094051915812 0  1.798434376789567 2.38671361912528 0  1.206314791201715 1.382064292497919 0  0.6333752893366955 0.7023738550008095 0  0.7796219811205605 1.42573253164258 0  1.564399711917382 1.026040828857629 0  0.3385416666666666 0.4889012896825397 0  0.1041666666666667 0.390625 0  0.989112246382566 1.543537365516289 0  2.025724425454636 0.9846960595520872 0  0.6602885475034063 2.086117390485779 0  1.607130551925032 1.267198646640915 0  0.1317864544877056 0.8896173683400176 0  1.755387840017567 2.230364320056445 0  1.301540702984401 0.1216289692748247 0  1.433170657577442 0.3331052752740999 0  1.500459610550388 0.113513924782439 0  0.6494291520606965 1.029586599619295 0  1.010146149868299 0.794897284196169 0  0.3700844198238017 2.235390157870766 0  0.3360891767780704 2.36656279435396 0  1.876856241037701 1.437150669863757 0  1.778674102957329 1.245979347269706 0  0.5472829890977179 0.1005517127039925 0  0.4669074189005698 0.3416784232954367 0  1.472765289289269 1.850899166481903 0  1.555853593327178 1.608452097912802 0  0.6708955559113426 1.646561631116984 0  0.8164699620322933 0.5924479455478063 0  0.3167738989468366 1.758696809749795 0  0.2788007305565096 1.605499483471246 0  0.7821720982350511 0.181524936294752 0  1.376812251214195 2.313340247908297 0  1.785652202614777 0.5962261755537186 0  1.761467296310972 0.4679567244718574 0  2.2265625 1.8359375 0  2.3828125 1.9140625 0  0.5279531607054191 2.071552361614785 0  2.397573269551114 0.234375 0  2.383578172599618 0.3589298466020009 0  0.1024267304488855 2.265625 0  0.1164218274003825 2.141070153397999 0  0.2696857594953064 2.135405441512016 0  2.164961300137334 0.1375322943529536 0  2.137757548369486 0.2724194778647587 0  2.238873711826398 0.3626419179496562 0  0.1001414910226386 0.234375 0  0.2176339285714286 0.3478422619047619 0  0.2503620791333544 0.1061694061057066 0  2.336445461915368 0.1250451055247424 0  0.2154004640409726 2.3918124
[...]
<PointData  Scalars="f_124-2"> 
<DataArray  type="Float64"  Name="f_124-2"  format="ascii">-1.5935645013499316e-24  -1.1313745838770853e-14  -3.7794803742446437e-28  -4.3704946570794392e-31  -2.4736334281751670e-17  -1.5356529712438373e-26  -6.0889458857581050e-25  -1.6449832093350566e-14  -3.9847912720070679e-16  -6.2145083825083697e-13  -8.6646629218692920e-15  -1.7321462123952422e-24  -1.0051932600699380e-18  -2.3335550914835645e-28  -3.7905210397544882e-22  -9.3060072433702831e-28  -3.6023484451586111e-27  -5.4542744326461916e-20  -6.3572818857517884e-18  -2.9376104875542536e-14  -4.4932980466831366e-21  -3.0890533031472306e-14  -6.6965657551770869e-20  -3.5082744333805544e-13  -1.2979332950598583e-24  -4.7449534451951396e-16  -1.1635506349510840e-17  -1.7738007100893396e-21  -1.8662953871485462e-23  -2.5820888846563714e-24  -1.1422340005477274e-20  -1.0918747591451462e-18  -3.2661722032223950e-13  -2.8034558825047115e-23  -9.6720779842186541e-16  -7.3069172805029688e-16  -6.9695706364678705e-21  -2.1068014860485480e-14  -1.9532268537178458e-18  -2.7549788572801033e-24  -4.4663617325587537e-16  -9.5049627576942621e-23  -1.4548077575428814e-14  -2.6875375517419354e-13  -3.7127708157430625e-29  -4.4709357733730582e-29  -2.7529107133240576e-14  -2.2879085622865311e-13  -8.0098366973384668e-22  -1.3702552864720398e-19  -1.0868373635598784e-15  -1.1534132162091483e-24  -3.7844181976974867e-25  -3.1684371527326811e-27  -1.9800734555374304e-13  -2.7864991558588346e-16  -9.7985031980854127e-25  -1.3285667973905249e-28  -1.6669571373356817e-21  -7.5696682318033589e-26  -9.1778238050177811e-27  -1.2518239982076507e-14  -4.8654895984752557e-19  -1.8434502353330636e-22  -1.6163722632996752e-17  -4.2843273901436718e-18  -1.2893661286540004e-15  -4.9624439195726537e-23  -6.6494570321432522e-22  -1.4661320954716570e-20  -9.7247200775786659e-17  -1.1210785332105734e-17  -2.5372728879024230e-17  -5.3606177709241238e-13  -3.5046145000501078e-14  -1.8357510760165673e-13  -4.9321185298778240e-26  -2.4834533244786084e-27  -2.9123210713392918e-25  -2.4242547014220502e-18  -1.2708111658948188e-13  -8.3497117316473968e-16  -1.5135521996948799e-20  -3.9787094362279616e-18  -5.2704143658528324e-22  -8.7469132134146046e-27  -3.4172769539435406e-26  -1.6200599950544617e-19  -4.6119086785967126e-20  -2.1619985392778765e-22  -9.8836675049451165e-24  -1.4539358780821845e-25  -5.2650698861858526e-23  -5.5092523388698373e-25  -3.2601205765091394e-23  -2.3219302592866743e-17  -2.3777970509784232e-15  -6.5802578757035302e-25  -7.1053099147000191e-21  -5.9543439506107585e-23  -7.9224306368630125e-20  -2.2727339990874748e-21  -1.2466091646197310e-19  -2.3402953760475866e-17  -1.3553439817571809e-19  -6.0334084891240160e-13  -4.1839436406346122e-13  -1.5062510400919429e-13  -8.0947555278384337e-23  -2.1120108355641597e-26  -7.9630913994749872e-17  -6.6882890984142764e-14  -1.2140446480137804e-13  -9.8795492684169221e-15  -6.8751350204478357e-14  -5.6640476532571292e-15  -2.4748846339046146e-15  -5.0157303345799246e-22  -1.6337337089578614e-23  -4.1031474682542060e-19  -8.6606091892372759e-15  -4.6071578593359714e-23  -4.8043920794639976e-28  -1.4156367418598757e-15  -2.1559703938368739e-16  -4.1881255787447217e-30  -4.3499276164020889e-13  -2.3398437427935706e-25  -5.9391696920822579e-24  -7.1430505145914919e-20  -2.5718267272756022e-14  -6.2810987638858619e-20  -1.6943631130309125e-16  -3.2516615558351025e-19  -5.1618030561829980e-22  -1.0178857695632615e-18  -1.1105045471652119e-18  -4.8457920448719046e-13  -3.2967211247220664e-17  -7.9218043091981239e-14  -1.6737578920066375e-15  -3.5679481851222791e-17  -1.9308509399835794e-16  -8.9801605816879895e-17  -5.0969091480258666e-26  -4.2852390395415404e-25  -4.4851225472389157e-30  -7.8566078870432236e-25  -1.1706301319137704e-18  -6.6058464147129048e-25  -7.6717491637907411e-17  -3.0112483246100594e-13  -3.6915071751071214e-15  -6.9529153590356084e-27  -1.0514172508578871e-14  -1.9424584985829044e-16  -4.6115268634582470e-22  -7.5784363989616953e-23  -8.7551225414842917e-21  -4.0934502462239029e-20  -1.6001631496492364e-27  -2.0296698434840382e-21  -1.3423157022587837e-25  -1.2463699165205514e-26  -2.3776458770771928e-28  -1.4629100450377448e-24  -3.7850335975227437e-23  -1.5568520628818696e-14  -1.2026511126538836e-13  -4.1801726468533117e-15  -8.2128772079863552e-14  -8.9702460840334617e-15  -1.3196863691372436e-21  -1.0951025193144193e-14  -5.8037025805042951e-14  -1.5650802309971314e-24  -1.3583014338025089e-13  -3.5867027898752164e-15  -4.9380318024471557e-14  -5.9455402400348526e-15  -3.9022844884361863e-20  -1.8649835433508797e-18  -1.6565199882681136e-23  -6.0450663017754193e-25  -1.1175102385204548e-24  -1.4160107846867922e-24  -1.6471815108249129e-26  -8.9193618063975666e-25  -9.0070926156157012e-28  -9.6448146570214048e-27  -1.4335912203507936e-23  -1.0220624877858131e-28  -1.7283222400159516e-18  -1.3809824097223842e-14  -5.2999908872016667e-13  -2.7496704456134808e-15  -2.0373467631905629e-17  -5.4137673055913236e-20  -3.6048986249047108e-27  -2.0058355179160909e-28  -1.7307274737964951e-22  -2.6583012105697579e-16  -6.5896731184470996e-29  -9.9801650151338334e-20  -5.4039673209661830e-17  -6.5536844361941411e-18  -2.7353924917673619e-19  -5.1086785047873651e-21  -3.6212905878775043e-14  -6.2998285484931437e-13  -8.7992067362841978e-22  -3.8169380504977005e-22  -4.2601569047789333e-19  -1.7452881743340308e-23  -2.7043304381910273e-22  -4.0858260907643864e-13  -2.1422632462696547e-23  -1.1293847033304781e-17  -2.5868599045222876e-18  -1.5122904093423263e-25  -2.3656243134329857e-19  -3.1231730132959451e-23  -1.5228573511970331e-21  -7.4460811898556328e-24  -1.3544411926152318e-21  -5.1884460469546579e-23  -1.1073104779424321e-22  -1.3195082973767128e-15  -4.5483940245187734e-15  -7.0902232159691004e-21  -2.1371913450930888e-15  -2.6764436081523639e-26  -2.9593465487055274e-28  -3.7834629210111968e-18  -8.3666932500227771e-21  -1.9683369490554424e-23  -4.6192260273331710e-16  -1.3233206637952955e-16  -5.8523769952271298e-19  -6.6035852957243509e-24  -5.8766992635678317e-20  -1.2399485316965034e-20  -3.1756417175957271e-18  -1.2945789761020918e-17  -4.5367024195967198e-16  -4.1757933055263098e-16  -7.6244493465432330e-14  -6.5401339171291777e-21  -7.4441493827844993e-15  -1.7080350571562015e-21  -1.5365044718351888e-26  -6.4574925804560829e-26  -1.7465478402195116e-16  -3.1530702400463626e-13  -1.1655565708735122e-15  -1.2648852374788942e-17  -5.1894068462933461e-13  -4.0317269738114081e-13  -1.1317775680279347e-16  -7.2910015975066543e-22  -1.1663360950235369e-20  -3.0080256957091263e-18  -2.6990159263713355e-13  -2.3481585304917850e-24  -1.2872921659490608e-17  -2.3039421311462566e-18  -4.2956294105650370e-19  -8.9170731788768124e-14  -2.2154860945093215e-14  -6.7526666423433737e-22  -2.3019660146442574e-23  -9.7604494340995882e-21  -1.5063651324373390e-19  -1.2344174327641344e-14  -1.5918475586785448e-13  -3.0605652793129414e-20  -3.0053175221307128e-19  -4.9747163152621472e-17  -7.7621036431817592e-14  -9.7507668819163121e-18  -1.3130199643675332e-16  -4.5832015328480732e-15  -1.1666201156699441e-23  -1.2328858421963542e-20  -6.9818875834928948e-21  -4.4773891361778669e-25  -6.8135157770043095e-27  -2.0656208846412764e-20  -1.3154389374448794e-27  -1.7750060519494888e-27  -3.2063735100552692e-22  -5.2708347362065905e-21  -6.2151353836586985e-21  -5.1708054437482631e-25  -8.1912623502933063e-25  -7.6948376910077899e-26  -1.3125747117352731e-13  -3.3246185965945596e-13  -2.9108579825181379e-14  -8.7826680259503849e-27  -1.4108776523935598e-23  -5.0626033980003857e-22  -3.1716853714265027e-14  -7.6272858472522573e-21  -5.9260343355454166e-15  -2.4980552288791621e-16  -1.2143944170320159e-16  -1.2403292647231482e-19  -3.8918260703706430e-19  -3.0919352214943864e-14  -3.0479418152812627e-19  -9.0220073240304954e-23  -5.2279262291313638e-27  -1.3965261703587706e-26  -1.5294142061189505e-28  -2.0962141983540276e-13  -5.4309300448200199e-19  -7.1719419371954228e-19  -1.0875872560582640e-17  -8.1645642217006883e-24  -4.5008257398455060e-18  -7.9512590567465464e-22  -2.9873795690881839e-13  -2.4051533488584619e-17  -3.3566755409537729e-18  -2.2933197232528607e-24  -2.3306199945200554e-15  -9.1416537553571390e-24  -1.3514029001605021e-21  -4.3332364746814146e-14  -7.8674852572224732e-26  -5.5337259791976070e-13  -1.0533881943494823e-14  -1.9732418487510272e-23  -9.4235708178682646e-24  -4.3981318878964506e-23  -4.0637191953427237e-24  -1.1064876638494554e-15  -6.8319088486169592e-15  -6.4177481241711961e-26  -6.2317580297928804e-24  -3.2753383326629905e-14  -3.4290856457007536e-20  -9.6110605571780964e-19  -1.5704043509143651e-24  -1.6821715490877563e-21  -3.3471671111192657e-26  -2.4792169900798486e-22  -8.4076575319754811e-17  -9.7335151748877093e-24  -2.7059425179508406e-15  -5.0141610133311482e-13  -5.3105410069452393e-13  -6.2575239142534803e-13  -5.5188149469029690e-20  -8.2774806726489634e-17  -3.2388592703274693e-14  -9.5832397929400581e-26  -8.3380336275431764e-26  -1.6886155854116819e-24  -1.1957011061617347e-23  -4.2870280614703381e-30  -7.0999521924651909e-22  -6.6226144629600266e-23  -2.5382530378721708e-17  -4.9878452146120402e-28  -3.5009626345847777e-19  -2.9177951921101729e-23  -1.6953616212095020e-20  -2.7047082777876950e-19  -8.8826462729462136e-17  -9.9972669779154009e-16  -1.1090419717762784e-13  -3.1662385385627854e-26  -5.4495912277256737e-19  -6.8900247004008295e-15  -2.9091944061712256e-15  -5.3106819376705888e-25  -1.8243173611698510e-13  -6.1543099249898639e-14  -1.3509382387871558e-13  -3.0542249190370445e-14  -5.8764488320603039e-22  -3.3518240513621705e-15  -2.0415176757190615e-18  -4.4292311674661307e-17  -6.9598879855984675e-20  -4.5329645996431591e-21  -1.3178270919021957e-24  -1.9812011103097196e-16  -6.7401767880856299e-17  -2.4446250750756253e-14  -5.1240750441136048e-22  -2.5419420593879405e-13  -6.1737857215203071e-14  -1.9374258148117943e-25  -1.0626401478616397e-17  -4.5343393011759807e-20  -3.0815262288027963e-25  -7.5693120014758822e-16  -5.8207880770361776e-13  -1.4197638140353608e-13  -4.7085910688980713e-21  -1.0296024835902210e-22  -1.5499372964192866e-17  -1.7417050117689102e-22  -7.0614993769726160e-25  -2.4144424768716170e-16  -3.1071928549622586e-13  -1.9355889156841377e-27  -1.1834092084008592e-15  -1.1776349025918014e-15  -3.9115397298420098e-15  -2.5819409784069064e-25  -2.0030445808794384e-17  -2.7249716879941292e-16  -6.1248304686394898e-20  -5.2324955717494995e-13  -6.6357810802638213e-14  -1.5341224547103069e-24  -7.2446769133123407e-16  -1.1363167580564971e-20  -2.4660352887492213e-22  -1.3860271710594914e-23  -3.6670305837714145e-15  -1.9998108686563938e-14  -1.2506975206768078e-18  -8.9682767144536685e-21  -1.3468890294284671e-22  -7.7873255822981416e-24  -5.7344438347952041e-15  -6.4168323436730340e-17  -5.5449512221614906e-24  -1.1004523916882034e-22  -8.9428443889364374e-24  -2.5792062511913378e-17  -6.8869228304651716e-20  -2.4029543284982316e-18  -6.7852307791729437e-22  -4.9938558951473815e-15  -7.8854360061859438e-26  -1.7235356866458277e-17  -1.1208868351880331e-14  -1.1673248609858318e-21  -3.1998417012209842e-29  -1.4726508147950857e-13  -5.4463448023069547e-20  -4.8198276255707866e-17  -1.2020170288466298e-15  -7.4905503191587109e-26  -4.9729805888544974e-18  -6.6329417510274390e-14  -4.3317765177850068e-23  -4.7791641747957729e-27  -2.0424476319403612e-24  -8.0609496016852210e-25  -1.8314794584465910e-14  -5.0352201729862085e-13  -4.2357910243788508e-16  -4.0628442518926653e-13  -1.8698551150773701e-19  -1.0504613679771385e-18  -1.0779107416949338e-14  -2.3456098714901532e-24  -4.6587260273812587e-24  -3.4133749672303594e-15  -1.7756410935952286e-22  -1.9312620907504137e-13  -3.9856230198270804e-19  -6.0781802600178509e-13  -6.5546586817671554e-23  -2.2945470213149451e-14  -2.7069840434477231e-14  -1.1280381382555479e-16  -1.2245563975083098e-17  -8.3635894142574992e-18  -4.5514331159840000e-19  -1.7414263683267437e-19  -4.7007299190953230e-18  -1.9727191088190568e-14  -1.0880361053387739e-24  -4.3959290208819915e-26  -2.8777818024189169e-27  -1.7730412504090043e-22  -2.5494969421750014e-14  -4.0767017173359056e-26  -7.9677619431611197e-14  -2.6194010969705478e-16  -1.6398206517320457e-14  -4.3035097297159002e-21  -4.5198506839046242e-16  -1.8399106717469737e-18  -2.8798571744387517e-23  -2.1704370174038782e-17  -1.6382758935819521e-27  -5.9328613339404147e-25  -1.1787092085358846e-20  -2.1258320746423559e-24  -6.5080748126301173e-19  -1.7348132040285482e-25  -1.2771971230937562e-22  -4.5475519750750267e-18  -1.2820794711487440e-15  -1.4650439262654207e-14  -1.1634722477267116e-28  -1.0861026358314099e-27  -6.2982171165613372e-24  -1.0638305282883599e-15  -2.2068612389619927e-18  -5.5262970734395448e-18  -8.8193066416260923e-20  -2.9151077756923979e-27  -1.6215367813487239e-15  -1.0743008466068699e-21  -9.1740036678251946e-15  -1.0677413575682629e-13  -3.2167606002434763e-21  -4.7537635378977155e-18  -1.1779121094629799e-19  -7.6438307092823781e-24  -1.0603589133522196e-23  -1.8071543266533695e-16  -4.3458828516089463e-15  -2.4279681843875395e-16  -1.8316587768124458e-25  -9.0865869662925123e-22  -6.9301252861944720e-19  -2.7121535711337222e-19  -7.6918376412461564e-20  -1.1393984453189869e-21  -4.9523538775040178e-20  -3.3879693231652224e-24  -6.5983392252678607e-24  -4.2109556439543814e-17  -5.1989169790821855e-28  -1.4201623277337595e-22  -7.2275656327526922e-23  -2.7707574411327355e-21  -6.0586399048403757e-27  -5.2925418887190488e-26  -1.8198772892780974e-26  -3.3465299487835767e-28  -1.5954830970412314e-21  -2.1152804367157903e-24  -6.3153795272402777e-14  -6.1285320743865649e-14  -2.6227182145515710e-18  -4.9190304761095661e-24  -9.7981469794586350e-26  -7.6052361387802222e-19  -2.2127984551860543e-28  -3.5774554091693627e-27  -3.2328386378994116e-16  -1.1776467722891782e-16  -1.1201147881302944e-26  -1.5122364931655198e-21  -7.4264891690696558e-18  -6.2067774392431778e-15  -2.0981734631429248e-22  -9.0958875342246425e-23  -7.1850447072979026e-26  -2.2445398319678842e-13  -4.3943601448806207e-13  -3.2124810835689716e-13  -4.1568179349741243e-19  -1.1591130181386619e-27  -2.7507547509104072e-20  -2.9285034655451397e-13  -2.7384712821418509e-27  -6.8447061938551080e-23  -3.8688920749708085e-19  -8.9125671690149455e-20  -3.8192306671677845e-22  -2.3404626061840726e-29  -1.1653524586352461e-18  -3.2936778135324719e-25  -7.3064705810514152e-28  -3.9279112966631408e-13  -4.0889947669473073e-16  -1.8557345206661980e-18  -5.1107628173804118e-24  -1.7268545996481063e-26  -5.2152468195988909e-18  -1.2437073300715000e-21  -1.4789904695231318e-14  -3.4425633225561646e-18  -4.4528115301763816e-28  -1.5324718219225404e-16  -1.5765828197826306e-13  -3.6895766264640534e-15  -2.0224803955249310e-20  -1.0549524502757675e-14  -8.4269318502971551e-16  -1.1943631885594084e-15  -5.1531982506551494e-24  -1.6511245355709290e-20  -9.8060600765997122e-14  -4.1931688214506210e-15  -4.0690552247388064e-14  -9.0879807294650778e-15  -1.1723443192666665e-14  -1.9908807970822406e-13  -6.5282042647538997e-14  -6.0548250686783799e-26  -6.1899082964784160e-27  -5.1605955313580767e-17  -2.8383291344549904e-16  -3.0521197883491981e-16  -1.4720555604057590e-15  -2.6802767077603733e-13  -1.8194811147621439e-21  -1.3987631018009219e-24  -5.1684886375423610e-16  -3.0501302882739987e-25  -7.3973349988831394e-26  -9.7012994807444229e-27  -1.3962822105653388e-20  -2.3910577330123232e-26  -9.7184734150786555e-15  -9.7016849822757937e-24  -3.7239497403837837e-17  -4.7219809309144257e-23  -2.2042105954834906e-23  -1.1232282140622308e-14  -1.3662538470739492e-14  -1.1115000267396103e-24  -6.6258290717652838e-18  -3.8866342042309488e-28  -7.8805002761596709e-14  -8.6959802108750735e-21  -4.3607455100447019e-28  -1.9887099899970661e-13  -2.2253813841356584e-13  -9.2077876891417599e-19  -1.3186722007780528e-22  -6.0396002480500009e-17  -7.0546994555740173e-16  -1.6568995997049373e-27  -1.8659316346075746e-14  -1.9056344243891456e-25  -1.0444943654290069e-23  -7.5793751072605081e-16  -7.6203294216968126e-23  -5.9761798544211618e-13  -3.3229525089092273e-17  -2.7399013922910636e-21  -2.6160244320784957e-20  -8.8818203551712985e-19  -1.4965465439680012e-24  -7.3229996007360704e-21  -4.8714211775245718e-19  -3.4728346927761491e-15  -1.6459066612529894e-19  -1.6930637356227871e-21  -6.9606913631631325e-25  -8.2651304634009256e-26  -7.8252276492309768e-21  -1.5881461249303207e-14  -9.6392723144834597e-25  -4.4970169741969483e-26  -6.7774692852109256e-17  -1.1934738127569295e-29  -1.1376374168101568e-24  -1.6613606789479477e-28  -7.1053207300478343e-24  -1.6690260505130027e-24  -3.4893426132743760e-25  -8.3888725121586738e-17  -1.3860808750090327e-24  -6.9196308809986132e-27  -1.5966910368291996e-21  -3.5676014308441942e-20  -1.2886074529842513e-26  -1.6260352486978386e-26  -1.3053548916994446e-26  -1.1979568353182218e-13  -3.3856439964047422e-14  -7.3219784973620422e-15  -7.7126571625700602e-25  -5.5928199792680756e-13  -2.0919045264921283e-15  -7.8353525242158440e-23  -2.5715149995392622e-19  -1.3524409770608820e-24  -1.3051043760607357e-14  -2.4874114690837970e-22  -1.6073819245997109e-28  -1.1814170632151327e-14  -5.5916720856860154e-19  -1.4756694696758301e-13  -4.0278924118987490e-13  -8.5771015454770386e-27  -1.2417972769200539e-29  -1.3400891141381908e-30  -1.1721765259859165e-30  -8.4762474021322860e-16  -1.1708473912991318e-25  -6.1339537162657020e-13  -2.1153737761430283e-27  -9.9226120520030988e-29  -1.0975867185009611e-28  -2.7531644669033588e-21  -3.1000596143006125e-22  -3.2615681738083780e-17  -5.5381232601235477e-24  -9.4259805542659774e-18  -3.0615167554310872e-24  -2.6796448060845844e-13  -4.4367672980483678e-13  -4.1439191584696411e-13  -4.9839925343702065e-25  -1.4871766500741512e-14  -1.0257230443659917e-13  -6.2704398237895441e-13  -6.3320088197480374e-20  -8.5513018355477554e-15  -2.8047768405805448e-15  -9.5084114989435826e-21  -9.2196837587502736e-16  -3.0684741897201698e-16  -1.0072121884910394e-16  -5.9917914877879212e-15  -5.8326106464155545e-13  -6.1897043484219052e-13  -4.3568489351136968e-24  -8.4023246140765310e-21  -1.4402518509771906e-19  -3.6624925962765032e-23  -3.0972625783823695e-13  -9.2220043609396900e-26  -3.7923338217278324e-16  -1.5117257601332672e-20  -4.0821663125528885e-15  -2.1068265250342568e-13  -9.9841283293605437e-18  -7.3975394608672005e-20  -4.9527812548708901e-18  -5.9192760027525534e-14  -1.5644994732662672e-14  -1.5277366943446130e-22  -9.6201445689632984e-25  -2.3042353982234149e-13  -1.5336861152082244e-23  -1.0479216467772432e-24  -5.4661714008721165e-16  -1.0628014584947728e-18  -6.2798740768706311e-14  -2.1027152141265420e-19  -1.5695219428535517e-13  -1.3778752340264095e-24  -3.1789779366928379e-17  -1.2722161585235496e-17  -9.6451640711382376e-23  -4.8068150773844426e-21  -3.3751161255621311e-21  -2.2366242535434530e-22  -5.5933040417004745e-22  -3.1232985432940102e-21  -2.6718538316873864e-15  -6.6066346363620709e-21  -5.2054332672174666e-18  -4.4031700865078809e-16  -1.1488375276037688e-18  -5.8863263823008962e-19  -3.3341609387755820e-24  -4.0790878929619260e-17  -9.8782204676442659e-21  -1.9099164869078327e-21  -2.5738714367589084e-20  -2.9356545006686638e-20  -1.5445866040013578e-16  -8.6726581698531352e-17  -1.6094686576639146e-17  -5.4503576070489093e-15  -4.3060123759114082e-25  -1.5851008315577300e-22  -8.0539947041326135e-23  -8.3243505455803164e-22  -2.0611320721512582e-21  -3.7913182210786141e-22  -2.4499823510054978e-24  -1.4145706677293626e-18  -1.2432744242125955e-18  -3.0527423029879858e-24  -1.6277903924660043e-26  -2.2982543208881744e-23  -6.1975668717388889e-18  -1.3002979932503972e-15  -2.1512982684718818e-14  -1.6771001202978307e-18  -1.9265401800004401e-23  -1.0261762267018594e-13  -8.0770465109002357e-18  -3.8885556337662947e-25  -4.1324562857168801e-13  -1.9775996443526483e-22  -3.556493