<?xml version="1.0"?>
<VTKFile type="UnstructuredGrid"  version="0.1"  >
<UnstructuredGrid>
<Piece  NumberOfPoints="6454" NumberOfCells="12638">
<Points>
<DataArray  type="Float64"  NumberOfComponents="3"  format="ascii">0 1.5 0  0 0 0  1.5 0 0  1.5 1.5 0  0.75 0 0  1.5 0.75 0  0.75 1.5 0  0 0.75 0  0.75 0.75 0  0 0.375 0  0.375 0 0  0.375 1.5 0  0 1.125 0  1.5 0.375 0  1.125 0 0  1.5 1.125 0  1.125 1.5 0  1.0625 0.4375 0  0.4375 1.0625 0  0.5625 0.375 0  1.125 0.9375 0  0.3854166666666667 0.6979166666666666 0  0.8049568965517241 1.130387931034483 0  0.28125 0.28125 0  1.21875 1.21875 0  0.2175662878787879 0.9079071969696969 0  0.5625 1.303571428571429 0  0.8290441176470589 0.2738970588235294 0  1.303571428571429 0.5625 0  1.2578125 0.2421875 0  0.2421875 1.2578125 0  1.010416666666667 0.6979166666666666 0  0.2051282051282051 0.5216346153846153 0  0.9856455736880344 1.297298524562678 0  0.7653719096334186 0.5079390451832908 0  0.5481770833333334 0.8606770833333333 0  1.039462506743128 0.2044177382376396 0  0.5828641541157527 0.6178675878563986 0  0.9136904761904763 0.8913690476190476 0  1.3125 1.03125 0  0.6409183354192741 0.1798341677096371 0  1.281668526785714 0.7820870535714286 0  0.1875 0 0  0 0.1875 0  1.5 1.3125 0  1.3125 1.5 0  0.1920012972225798 0.7153938510340165 0  0.4043073677566794 0.4982626425332328 0  1.054735085357395 1.117171638214202 0  0.9375 0 0  0.5625 0 0  0.1875 1.5 0  1.3125 0 0  1.5 0.5625 0  0 0.5625 0  0 0.9375 0  0.5625 1.5 0  1.5 0.1875 0  0 1.3125 0  0.9375 1.5 0  1.5 0.9375 0  0.4468932545895913 0.1802144181965304 0  0.7987562970593343 1.318357727289711 0  0.6320399113235965 1.037924776639822 0  0.2603996068459564 1.080712106845956 0  0.3802379261363636 0.8658558238636362 0  0.3950892857142857 1.331473214285714 0  1.229910714285714 0.4095982142857143 0  1.13745405880473 0.5879074784276126 0  0.7482946595664349 0.917427298948138 0  0.8625423372573767 0.63562835295355 0  0.9012540315035069 0.4192242537897745 0  0.6862861647268528 1.220560482834343 0  0.1224516396650128 1.023194379059598 0  0.125 0.28125 0  0.3042571223994863 0.1326690407998288 0  0.4149781713917952 0.3488154858246145 0  1.359375 1.171875 0  1.3359375 1.3359375 0  1.131854448751258 1.346034816250419 0  0.84375 0.1212988551125148 0  0.1361607142857143 0.1361607142857143 0  0.691638521804216 0.3135510227244841 0  1.131379139752747 0.7872570780892659 0  0.9688853304056201 0.5429870982608649 0  1.134057265332395 0.3075921335077801 0  0.1060987903225806 1.21875 0  0.1387129645862553 1.361715427487219 0  1.393901209677419 0.28125 0  1.361287035413745 0.1382845725127811 0  1.21875 0.1060987903225807 0  0.3601433665263453 1.180455866526345 0  0.5483798738512705 1.157949853770241 0  1.36815753200686 0.4172967302747542 0  1.187531723571597 1.085953361785798 0  1.401785714285714 0.65625 0  0.65625 1.401785714285714 0  0.09804407994526333 0.84375 0  1.402254384056937 0.84375 0  0.28125 1.403363735808893 0  0.925464184745229 1.040966878346683 0  0.9340282126721275 1.174186719212852 0  0.8797957988728348 0.7651628218565172 0  0.9934051945542568 0.3266495984636094 0  0.203125 0.3887553418803418 0  0.3141644363520071 0.590454276924375 0  0 0.46875 0  1.254999444628736 0.9118761107425289 0  1.03125 1.5 0  0.3213923331757561 0.9738827583030052 0  0 0.65625 0  0.1159730568910257 0.609375 0  0.5141588149450601 0.7319349350549398 0  0.5326188770927806 0.499793044891493 0  0.6693710930845284 0.4331752184013763 0  0.7121702197229691 0.6260790780451906 0  1.234475471272342 0.6664938523856012 0  1.098390770327214 1.229886041743451 0  1.013464781580893 0.8203484622190179 0  0.2952629260823795 0.7791860223918741 0  0.4928385416666666 1.401785714285714 0  1.21875 1.5 0  0.6298376402880013 0.7702339567996885 0  0.7848608254810038 0.3893687681820236 0  1.5 1.40625 0  0.4622923140598757 1.236370233688302 0  0.4667991207677928 0.9473088592382519 0  0.2981266305022628 0.4537778927841646 0  0.84375 1.5 0  0.9008085981204581 1.384216576384643 0  0.9616882272291621 0.1155730914816442 0  0.5035849743784865 0.2782669836795798 0  1.009598009491631 0.9590831193486247 0  1.105310675430652 0.1118663280349183 0  0.9288474621627256 0.2227857609567891 0  0.7464170347051563 1.031945227193052 0  0.1125198733612451 0.4565759846003609 0  0.841690222029119 0.9722978654718903 0  0.4672907609250232 0.5973206048957169 0  0.5437787095683263 0.1151781905475824 0  0.7536044163845748 0.1896192335637668 0  0.65625 0 0  0.7049920363331066 0.09569941760663599 0  1.40625 1.078125 0  1.39081588470667 0.9535067694133395 0  1.40625 1.5 0  0.6375104178177308 0.9268732242701165 0  1.003645772935292 1.399729634730415 0  0.1610182417168329 1.124880958145783 0  1.304862449892061 0.3348605478786471 0  0.8685031591756179 0.5174815394805063 0  0.203125 0.2142857142857143 0  0.46875 0 0  1.236252628961601 1.388617949258287 0  0.6528472422531054 0.5380411271234069 0  0.8059365139027533 0.8342920789922936 0  1.210984939277725 0.5129097255512943 0  1.166392387042105 0.1947779113806861 0  1.03125 0 0  1.112027098777656 0.6868999874317245 0  1.4091796875 1.2626953125 0  0.7056210334910562 1.122831931927321 0  0.8445532731910484 1.225781273471752 0  1.401785714285714 0.5192199888552865 0  0.5315992325579575 1.02511262900491 0  1.40625 0 0  1.5 0.09375 0  0.09375 1.5 0  0 1.40625 0  0.09828267889765753 0.7453580504435201 0  0.2137299928547555 0.6195416563936835 0  0.191293077366709 0.8134420362003882 0  0.395652989337951 0.09620832696794322 0  0.3786395303236629 0.2546156254865724 0  1.105082759698279 1.033286095599126 0  0.09375 0 0  0 0.09375 0  1.269539180892899 1.136742542678697 0  0.4693126788152344 0.427799606155492 0  0.6022922682526717 0.2709632077670539 0  0.286537769267488 0.682999829576168 0  0.431696207163009 0.7833932160815852 0  0.6864071374811688 0.8459705255349474 0  0.7528727250742914 1.403406392299215 0  1.40615841291152 0.7499896558614008 0  0.46875 1.5 0  0.28125 1.5 0  1.5 0.84375 0  0.65625 1.5 0  1.5 0.46875 0  1.5 0.65625 0  1.21875 0 0  1.5 0.28125 0  0.84375 0 0  0.28125 0 0  0 0.28125 0  0 0.84375 0  0 1.03125 0  0 1.21875 0  1.5 1.03125 0  1.5 1.21875 0  1.203254432787244 0.991934092179911 0  0.7018429057870754 1.316240552056942 0  0.09232383443139219 0.9359101690420062 0  1.40390625 1.40390625 0  0.2348931380369949 0.995323396873026 0  0.3477301897825538 1.059746137541629 0  0.2397198755521273 1.168072125048833 0  0.21928098141281 0.08974206793316726 0  0.09164332482786468 0.3669827664371529 0  0.4604861261832766 1.147925083553434 0  1.208242546284113 0.8346339808272811 0  1.042270885119771 0.6063462845058686 0  1.320424270852333 0.6988339884515781 0  1.018211345242011 1.19612913087091 0  0.3232572989405801 0.3642302377411452 0  1.219683471513571 0.319825657354259 0  0.9022918689243919 0.3281052118114913 0  1.209245485719643 1.305564994554257 0  1.051234566759267 0.5217852582666107 0  0.3673510104646698 1.413627432420576 0  1.295769937043816 0.4720643981603306 0  0.3072023010063974 1.318381411439101 0  1.141690261405714 0.3964585327199988 0  1.132920129606929 1.151700997493917 0  0.4797323103182937 1.318677829548113 0  0.8975459458359925 1.296170152543854 0  0.464209749529605 0.8633392490855897 0  0.2934839260221656 0.8659218053661386 0  0.5291505402246311 0.1980703646347806 0  1.129554686622487 0.4893579115624633 0  0.6803878781969045 0.7035160631177291 0  1.32373046875 1.25048828125 0  1.32216796875 1.41767578125 0  0.5499851861317793 0.9439128053349233 0  1.022629866909724 1.040850270203209 0  0.5745442708333333 1.417645342938312 0  0.6210905905518814 0.07817000059074161 0  0.8251326424747147 1.051763251304391 0  0.9840195129520318 0.4094589843317338 0  1.335304710332526 0.8922471458140904 0  1.056578658899854 0.8909713350312058 0  0.6311277392046407 1.158870891931624 0  0.08048866130562571 1.097266504752301 0  0.7899471681381695 0.5900550615276262 0  0.787583911300231 0.6744258112570235 0  0.9253568605083915 0.6931779950154204 0  0.6069241236579608 1.236016193461046 0  0.9754544598564333 1.105608345312828 0  0.5891224709431884 0.6993621756793521 0  1.20518939408778 0.7458807514137317 0  0.7661039078070937 1.202429845202379 0  1.160750676252366 1.424456431149488 0  1.07906062607374 1.432028171475168 0  0.3800251736020173 0.4214243130004857 0  0.9386398271504294 0.6156244973145778 0  0.0625 0.234375 0  0.203125 0.2933407738095238 0  1.215434655272782 0.5908176357312523 0  0.3862873976850203 1.253958025454808 0  0.9642783311550196 0.7603191879845486 0  0.07907187269262334 0.5337704210040105 0  1.05323270401054 1.338218592033867 0  0.7809244217906405 0.07297738156489482 0  0.8538188665025647 0.1992768958275427 0  0.9002757663302332 0.06810835486946346 0  0.3896574912364178 0.6177519597715768 0  0.8312147565658268 0.4504658003252042 0  0.6060876899209792 0.4769383705177015 0  0.6973120163099531 0.973865749266754 0  0.2220506518942812 1.34123409472246 0  0.2016535060668421 1.419937676612376 0  1.067204461774397 0.7475876083618238 0  1.126113744622621 0.8622904019182541 0  0.3283697934586307 0.06033102762239553 0  0.3141768357227177 0.2102768223058998 0  0.8836591735735614 1.110539499889141 0  0.9335121559963067 0.9650712587476813 0  0.489881977219376 0.3554687673286838 0  0.1635028372004782 0.9601830799237989 0  0.190064339368102 1.055218085849877 0  0.4693032589410306 0.1089149617768512 0  0.826087350728517 1.388004148744978 0  1.071391321568866 0.357735705332231 0  1.056880377786583 0.2807740346831144 0  1.3359375 1.1015625 0  1.4296875 1.1484375 0  0.3906148988360577 0.9415494491776595 0  0.06145603826933142 1.359375 0  0.06985309644022948 1.2846420920388 0  1.438543961730669 0.140625 0  1.43014690355977 0.2153579079612006 0  0.161811455697184 1.281243264907209 0  1.2989767800824 0.08251937661177217 0  1.282654529021692 0.1634516867188552 0  1.343324227095839 0.2175851507697937 0  0.5747241214300347 1.087143402580354 0  0.1502172474800126 0.06370164366342397 0  0.07677312842259779 0.08704698619211086 0  0.06709364565267519 0.1592134266688963 0  0.1305803571428571 0
[...]
<PointData  Scalars="f_16-2"> 
<DataArray  type="Float64"  Name="f_16-2"  format="ascii">7.8993002047771631e-21  1.1899518057256947e-25  1.3492435164272410e-27  -9.4651138893536212e-17  3.8863377161830368e-26  -2.5974646581310158e-23  -1.1285627788800993e-19  4.1975736937993709e-21  -5.7690918402204442e-17  2.0481098646522593e-21  8.2777035798499554e-26  7.6958154771025074e-21  6.9203642918724746e-21  1.5318746622962948e-27  1.2524376621589659e-26  -1.3232031008152401e-18  -7.1220435825129843e-17  -3.6749164597157865e-25  -1.1187259514066481e-19  -6.8120884308820153e-20  -9.7328862782423323e-18  -2.9269515373790801e-17  -7.1216000954468910e-17  -2.7662731669310616e-19  -1.0164858506517329e-16  3.8752448965130905e-21  -2.4121767411862512e-20  8.3427147126004912e-26  -2.6752580866696151e-24  6.5192584260933278e-27  7.7471334229655718e-21  -3.2256945983142807e-19  -5.2777417742426641e-18  -9.3396500877287776e-17  -1.0929677628801353e-19  -4.8727893421167087e-17  1.7471352018751290e-26  -6.1329831046077344e-17  -5.8357118749786393e-17  -4.1935909009629502e-18  5.7241217919034734e-26  -7.8770697419879747e-21  1.0156654107456376e-25  -1.3626929537021006e-22  -2.2091058964191312e-17  -1.5696231563093999e-16  -4.2843233582125145e-20  -7.2781254913710590e-17  -1.3149746450660222e-16  2.3558236416602341e-26  6.7132075772794830e-26  7.8459280770567043e-21  5.0847687528554073e-27  -1.0404809627494412e-26  2.6849045958463749e-21  5.6769033276594581e-21  6.3440517495530284e-21  1.5166085683175994e-27  7.8626561653789818e-21  -7.7128637754276343e-18  -1.8864408588482422e-20  -5.4213576460736244e-25  -7.1899041899269621e-18  -1.6247713211331943e-17  6.5964192690909552e-21  -1.0105083662090060e-18  7.8937580542024651e-21  4.1132760467110941e-27  -2.5934881648504815e-22  -1.4341089208324977e-16  -1.1717011028287300e-18  -7.9611633554995819e-23  -3.2675050188726405e-18  6.2407101361620860e-21  -9.7683751029522856e-18  1.6919700141867710e-25  -1.2266694249848055e-18  -1.7367225497525596e-17  -1.0047819165348497e-16  -1.5231687609138339e-16  3.3026206441142283e-26  3.9795432806918028e-24  -4.4818867052779119e-23  -4.5739104346918306e-19  -2.0415186693099630e-21  1.2763082939754323e-26  7.5076576092157466e-21  8.0272881163768133e-21  2.8956497788837155e-27  3.8161665307498841e-27  8.0833681415495892e-27  6.1882084579787668e-21  -2.6753591411969586e-19  3.6147574489435677e-27  -3.4934472452914739e-17  -1.2511122506656312e-23  -5.3403639096778611e-20  4.9378528822253521e-21  -6.5339042609196933e-21  8.0636815463389953e-21  -1.4533271688929708e-16  -1.3768967088738523e-16  -1.5091688769222898e-17  2.6908167817328577e-26  -4.7240053832965470e-17  -3.5497867731156274e-17  2.0270100442346970e-21  -1.0253556743208064e-18  -3.0531045482376768e-17  -1.7370404336915054e-20  3.3659043275724401e-21  -6.0654394729008617e-21  -1.0542585661579840e-16  -1.3662225048226045e-17  -7.5501237180130351e-20  -1.0359086575549362e-17  -4.4386534296778695e-22  -1.5890832891758461e-16  -6.2160378958371797e-18  -4.3885763640367407e-19  7.1939014614607230e-21  -1.3211957731159306e-16  -1.3170542908464057e-16  -5.1900305817023814e-22  -5.8231683884771762e-17  -1.2564157348468004e-21  -2.3365480961437227e-18  -7.6867869099123428e-17  -1.0426653609618550e-18  -1.7905226187204922e-17  2.2997375912158060e-26  2.0872834995565182e-21  -4.6151660460023514e-17  1.3354588445875827e-26  2.7791708433287244e-26  -8.8166482844611166e-17  -5.7713796692195448e-19  -1.4535024490662714e-16  -1.0279438324305905e-16  6.9477752153190741e-26  4.8513341665268060e-26  5.2288399123031308e-26  5.0912368204522189e-26  -2.0321039490676387e-18  -2.5357826249084247e-19  -1.3191011243479622e-16  -8.1020066180208621e-17  -4.8969426347311665e-17  6.9391528932144427e-21  5.1785456924291188e-27  -1.1114188694741435e-20  -2.0257324424628662e-21  7.5070189086415011e-26  -1.6249835109760287e-16  -3.5496039668522269e-18  -8.4240901615648357e-17  -1.8000545173346253e-24  1.0589296450028105e-26  1.7422026131586052e-26  -1.8278812401939351e-20  -2.8939237012670098e-17  -2.3532265229449771e-17  -4.7374127499845842e-17  -9.4672431788456750e-27  -2.2239436047109623e-18  2.5776172353916483e-27  1.3835976364046268e-27  7.8764376158521256e-21  8.0485386664018465e-21  4.0201406175316604e-21  -6.6802875002699649e-19  1.3616782742631832e-21  8.0641232103356509e-26  -6.2314824518723880e-23  -4.5816033350901035e-17  1.1088301169801871e-25  2.5762755897727947e-24  -2.8756629135887041e-17  -4.3024152510158196e-18  1.1497496021318914e-22  -1.8453588806570264e-18  -1.7771255720143776e-17  -1.3691507576412443e-16  -6.2636235863577720e-19  -1.2587353273654127e-22  7.6555658046908837e-21  7.7882504251309999e-21  -8.1373573150857777e-22  -3.5346405915491341e-21  1.4737109620225168e-27  -1.1460481487416163e-24  7.9200994461227046e-27  1.5605279116426305e-27  3.1437443114606134e-26  8.8485270036276318e-26  5.2168817170797495e-21  4.9251029104754941e-21  6.2847608370160497e-21  7.5122897826048048e-21  -2.2500990999156341e-19  -7.1419716178090841e-18  -7.5971211586607758e-18  -9.5615959083294028e-19  5.5647425480668719e-21  -9.8611414988712737e-17  5.7577561517671382e-21  -6.2229255823423460e-21  7.2136482495745231e-21  8.9216144961254900e-26  -1.2592780142686650e-18  -3.4394891925688561e-20  -3.4026190750974504e-19  -2.7452870228106715e-21  -2.0762840355149098e-22  -1.5880854473072115e-16  -1.6722002712721379e-17  8.2679887365706631e-27  -8.2641105152526274e-27  -1.5449801957294303e-16  -1.7187047355226718e-22  8.0290274884318795e-21  -1.6702942047844728e-26  7.9741552288106278e-21  -1.8439778370971436e-27  -1.1489812336972030e-16  4.9883569514335556e-21  -4.1278845307264053e-17  -9.6045759789978140e-18  -8.4151309745860089e-20  -2.8158941063134828e-25  -5.9320832085461355e-24  -7.1678373665947645e-17  -6.1046863550295497e-17  -1.4726558879118020e-16  -1.4414677474532641e-17  -9.7536219919598242e-17  2.7442852514073035e-21  6.1696418721049880e-26  -1.2831965345125918e-16  -1.7939746216622720e-24  -1.4003167421432452e-19  -1.1184465356553168e-17  -2.4304528238195187e-18  6.7589835102788025e-21  -1.2006299010777914e-18  -9.9396327683994084e-18  -1.7609942819334729e-18  -3.3144892821801873e-19  -1.5211504759590991e-16  -1.1523490529500795e-16  -5.0168079629143395e-21  -2.2923657506348237e-17  -1.3394275922091886e-16  -7.8173024371330608e-17  -2.3443089005881527e-17  -7.5794583798347542e-20  -7.2367804278910164e-20  -6.7189888626463497e-18  -7.1813661048706383e-23  7.2826043640529601e-21  -3.4183289802125588e-18  -3.0639227531245850e-22  -1.1627029929900285e-16  3.8229645474971993e-26  3.5776836456564342e-26  2.6836422569948438e-26  -7.7720418318052784e-17  -1.9660961304224517e-21  -1.7745949991920877e-18  -8.9519499172924024e-17  8.0076494987021160e-21  8.0354052178142147e-21  -5.5155437088367117e-19  -2.7337139131773252e-18  8.7985481592064586e-26  -4.2825960379338393e-22  -1.3471756794044105e-16  -1.0097619482944663e-16  -2.5764050689463612e-19  5.7292445687290576e-21  6.4486333876567513e-21  7.6287106357115979e-26  -4.1919239857599173e-18  1.6760980556133267e-26  1.7443200751778928e-26  -9.8374949557808283e-18  -5.5552412809546236e-18  -3.5862400912089183e-19  8.0101324871296439e-21  7.7780594305662737e-21  2.2148943586645391e-27  2.4759550154346709e-27  7.8049788584066530e-21  5.4441691189051566e-27  5.7061038238563953e-27  4.0594972412690024e-27  -2.6801684040929083e-18  1.0923119253448185e-25  -1.0226464219647237e-25  1.1816127045504167e-22  9.2685357825508566e-21  2.8090989403798801e-27  8.0363092427398697e-21  -4.3261449609747626e-20  7.5820950009864209e-21  1.7888311460185788e-26  3.8464263048628317e-25  7.5486826110484392e-25  -4.1386100111915310e-21  7.3998392137972273e-21  -2.5035970887161550e-17  -1.1018996633882482e-16  -1.0074384371792163e-16  -3.9069091442334477e-19  2.5770813038179058e-27  1.0894604014642852e-26  7.1659001752755480e-21  2.2248135101307363e-27  -4.7410867695457663e-17  -6.6314411574779077e-21  6.8719499871911796e-21  -7.7337209216187662e-22  -1.2088102420359963e-18  -5.4712034475362474e-17  2.2349041377494296e-26  -1.8567262551436001e-17  -3.7886395668389259e-25  -1.0497675149882635e-19  1.3813985953979964e-26  -1.1635076550557247e-16  -3.7773877242274489e-17  5.1347319354759603e-27  7.1136434712850329e-26  -1.3951680985768793e-23  1.0633056882414702e-21  -2.9516268957626529e-25  1.2090021686830447e-21  2.8215366721739028e-26  -4.9269188999646552e-18  -1.3512747041197171e-17  -6.4765617898558934e-17  9.4123442175429987e-27  -6.4548241828149787e-20  4.5401031111340760e-21  5.0370873069943334e-21  -1.6231351711798035e-21  -1.1342144724502110e-20  -1.1112200896750111e-16  2.0422544315423761e-26  -1.6068524274221488e-16  1.4795843155186941e-26  -1.7897696267235703e-19  -1.2042211543020353e-16  7.8720112818472525e-21  -7.2124416250639888e-18  -2.7648222523761630e-17  -2.3509100894125997e-17  6.0018609016426442e-21  3.7577986334169152e-21  -3.5640449264057326e-22  -1.2830174101154152e-23  -7.0095113468887875e-19  8.0392882020405364e-21  -9.8361677667825576e-17  -3.4109740646434894e-18  -1.1988211759704853e-19  -7.2951226402111097e-25  -1.6020879525580071e-16  -1.4881514370106470e-16  -6.3616062865146215e-23  -5.7223542722799504e-18  -3.0578734766235297e-17  -8.1617552718119777e-18  5.2700273653820885e-21  -1.1743078622391210e-16  1.1096205438219072e-23  -1.1730401185450894e-16  -6.0062311497244723e-17  -1.1922682408861239e-19  -1.6020579486001126e-18  -4.5119589885341852e-18  -9.3118936704768283e-17  -1.6676117788970307e-17  -1.5793936961426942e-18  -2.7522798923031623e-17  -1.4629811867660047e-25  -7.2077100607141367e-25  -1.3290330808645797e-21  -2.0357653217323266e-23  -2.7043644961001238e-21  -1.6490874984873642e-20  -2.3940537210960168e-19  -5.7109543973579526e-17  -3.8829643238130305e-17  -1.2348479600390427e-18  7.3321965897337557e-20  2.9356895988397661e-21  -4.5562013543387239e-22  -4.6885351656504899e-23  -1.4397855679758716e-17  -1.1538388027104888e-21  -5.3889752099048826e-19  -2.3491670152437881e-17  7.9810231943107399e-21  -8.9126222712748953e-17  1.7121728476866007e-27  4.6602345608080975e-27  -1.2565320703949901e-19  -1.1557775323271057e-21  4.0433540104043929e-21  -3.9346579499462127e-19  -2.2515557630578424e-18  -5.6882432434353823e-17  -1.8719650619566961e-17  7.7507860411509141e-21  -1.1638718751740352e-16  -9.9032374793598114e-17  -8.3071896169378591e-17  -2.9217159886093897e-19  -6.5721608570106159e-20  -7.2976671871297062e-17  -4.3410121214719548e-17  -7.0221533082132384e-19  -2.6592480036238325e-19  -1.1650751762804147e-17  -4.5460078378889423e-17  -1.4690050122778850e-16  -1.3289770376771263e-16  7.8573150380276881e-26  -2.6000238540837900e-20  2.7282211393263730e-21  7.4504275753211436e-21  8.0459289791852634e-27  -4.8832490242210100e-17  4.5380534848408444e-26  3.1879180477854162e-26  -7.1740889814112442e-17  -4.4717618529908750e-17  -7.8987804382925218e-19  7.6605720933052319e-26  3.5491005353951242e-27  -1.6493905744607535e-19  2.0847084542466253e-26  6.3835119225652475e-21  -1.8228574187122967e-17  1.4087196144173539e-26  -1.3393391553759426e-17  -1.4252417074055933e-16  -8.4928912762254163e-17  -1.0588937118515335e-16  6.7023585611257337e-26  3.6869903595877158e-27  1.5548352176452943e-21  3.3137634659207012e-21  -1.6280641051079282e-17  -1.3290720372794854e-17  1.1415709602304816e-25  -7.2830890099677111e-26  4.6044133503925915e-21  -4.2823750028598330e-20  -5.2415676214608605e-17  6.8536045809191312e-22  -1.7648047120610362e-25  2.3859766447161204e-21  6.3333817900998277e-27  6.9248609704112093e-27  -3.6415011962606375e-20  -9.3568256048172474e-18  -1.3881489135078678e-16  -7.4398041879716901e-17  3.0361205694226928e-26  6.6822697915033503e-21  -9.3943113003115845e-18  1.0326167143100539e-26  -2.1108086541155151e-23  -1.7698601102337583e-20  4.8201577169409826e-26  4.3270953146073048e-26  4.0819106124119734e-26  9.7333920164447960e-26  7.7951725514417933e-21  -1.4403600467557047e-16  -1.5967553040026882e-16  8.0613994253093004e-21  -4.1324498767835211e-18  -1.7481756146081101e-17  3.5648550546084450e-26  -5.2285597066796571e-17  -1.2227502788247376e-16  -4.3854605324492698e-17  -6.7156556104575767e-17  3.1504983945058393e-21  -2.4486066407647135e-17  -3.3674019731648021e-18  5.2055129490611596e-28  -3.8294880677778018e-20  -8.9919536308242582e-21  -1.5620320450981662e-16  7.0152655646403270e-21  -8.7489366027494604e-17  9.9060878288651800e-27  -7.4590247345895699e-20  9.7541846989506825e-26  1.5882527174123723e-27  2.1661449375426609e-27  -2.9516854689526778e-21  6.6428636565430676e-26  6.8221741459106564e-21  6.5867319799683000e-21  -5.4342466551704114e-22  -1.5195552392021590e-16  2.0165912443921893e-26  -1.0810136942982808e-16  -1.5020334013160810e-16  -1.7582846861298977e-22  -9.5948828909859077e-20  -4.9258039072944431e-18  -2.0544692388518164e-21  6.5244037221481895e-21  7.9644072743229910e-21  7.9620488540105322e-21  5.2661464412339487e-26  -1.4981483415316852e-18  5.7170405203899348e-26  1.5849695453244225e-27  -1.2996729430017660e-20  -1.5045405659712948e-21  -1.9291724807032317e-17  7.4938025390772163e-21  -1.3038636161088123e-17  6.6010381797636397e-27  4.2325523262078472e-26  5.8910178936890797e-26  -3.6602579040364008e-21  -1.3834105720207983e-16  -1.0355289524921538e-18  -2.6086541621735734e-23  1.4923567519164575e-27  -5.0283913677383828e-24  -3.7865717835401244e-23  -1.0626242817362483e-25  -1.3902196708362100e-23  -2.0240459693508850e-18  -7.2032628341682524e-18  -7.0110422295092880e-19  1.3106287955483710e-27  6.2145280414359802e-26  -5.0375919089375036e-17  6.4107323363436808e-27  -8.1308369962310878e-20  -5.8483630511371994e-19  -8.3394771136091112e-21  -6.5161215740798739e-17  -4.3169535284466519e-17  -1.4148119151619278e-18  -2.4609385105320419e-17  -6.2335072636447785e-17  -1.6283472778490545e-21  3.1956496238032967e-27  7.9034809589065993e-21  -1.1922381621844053e-20  -1.9722415978646149e-17  -7.9994123864025089e-24  -2.6142152289935026e-17  3.9716715930280663e-27  -3.5403121749601011e-18  -1.1194577210147708e-18  -3.7434797647132701e-18  1.9049122453040270e-27  7.3140709800991466e-21  -2.4204100241410840e-17  2.3815292969850540e-21  7.8087167216552284e-21  2.0541632386735362e-27  8.0593246813178082e-21  -3.4353356611551723e-26  -1.2564755811462845e-16  -6.2442098751423304e-17  7.7653739605886609e-21  -2.7628363420191568e-19  -1.6294950257718237e-18  2.2088913406818803e-20  -1.1721919894687363e-16  -1.4300864965402105e-17  -1.0167766397006644e-18  -2.8086586206049192e-22  -5.4503721663895742e-27  -1.5777239544142974e-16  -3.5803147934572679e-17  -6.5918244020598789e-18  5.3750050583234071e-26  -3.5502064482233183e-18  -1.4040633105356340e-16  -1.5369973485345871e-19  -1.3503035522107453e-16  -2.4075036518326512e-20  4.9380378588486516e-23  -2.2449750329114248e-20  -8.0760494229817652e-23  6.0795039613618436e-21  -3.0052214206964634e-21  4.3412410934805484e-21  8.2671047327097074e-26  1.0186085277794238e-25  4.4784873744270662e-26  -2.3100620540499765e-24  -1.5065856976823473e-25  2.2055541170859842e-21  -5.5271987787123495e-18  -9.3196772836155478e-17  -7.2373438235477724e-23  6.0315288941895078e-26  -1.8595015511342705e-17  -1.9685466188043957e-17  -2.0561759272741630e-19  -1.3096666657586188e-19  3.7901304712780397e-27  -2.7485794376186000e-17  -3.2436448520644468e-17  -5.2062704739415141e-17  -1.5309383189251075e-16  -4.9881656359330273e-17  -2.3959111096568395e-17  -5.6698186865385359e-17  3.4815077374681613e-26  -8.7228068670123832e-17  7.6760419576158120e-21  1.5415164616867752e-27  -2.1714255344003187e-18  -2.6130517678876116e-17  -4.6886127428082673e-18  -6.9769794559249167e-18  -8.7535969223728646e-19  -3.8588345222470153e-19  -9.5380680500437485e-22  -2.6363259085156075e-18  -1.0254309996561068e-16  -2.2530733170572340e-25  1.0026701929622945e-25  4.6143777056552533e-27  8.1729439802648395e-27  6.4461159952555575e-26  -1.8171643366190107e-22  -4.4545662693506972e-17  -1.3582305718414478e-16  -1.2151376334524034e-16  1.0729577957883684e-24  -2.2684463349429875e-20  -1.3962624528055678e-16  1.7489912990700222e-26  -5.7859582107981077e-17  -1.6748414099919419e-18  -8.8999765096213176e-22  -6.2953964614979856e-23  7.7468837943929310e-21  -2.0075252425798405e-19  4.1129898588962513e-21  -2.6848310461095517e-18  -3.7784872064726724e-20  4.3582895343969610e-26  -1.5209264035801482e-16  -1.5082334824798964e-16  8.0148202665304611e-21  7.8926614935297618e-21  -4.3202155165028335e-19  5.9955975062252434e-21  7.6758535940978859e-21  -7.3034531038204014e-20  1.5146548775336475e-26  2.0647829756172095e-26  -6.8760530369437092e-24  -1.0163309908975841e-22  -3.4569555421665368e-21  3.0804615730867321e-21  3.7656772389665365e-21  4.5569837322942669e-21  2.1090720401405711e-21  7.1695185228432976e-26  7.2093961408669839e-21  1.0250571688529087e-26  7.8757515410331315e-21  1.0546647683921476e-25  1.5047613129595024e-27  7.9722817229967546e-21  8.5589226283252740e-26  2.6983669855765006e-26  -6.6481420073371311e-24  -1.8267493037247538e-21  -4.5318763545906236e-17  -3.2984242176311269e-20  -3.3790267204728498e-17  -8.3791182964529445e-17  -1.0793248844340697e-16  5.3074482913947224e-21  -2.6370447717348617e-18  -6.8415294006429160e-22  7.4593385481452238e-21  -6.5174595533656817e-19  -1.2864212402203934e-17  4.8227196011733306e-21  -2.5848083180976089e-25  -5.0801023826816325e-25  -2.2617840520776610e-24  -6.7978695435278280e-18  -4.3216623390163816e-17  -4.2672310323092207e-18  -1.6480620929005182e-18  -3.4657540146265306e-18  9.5564933380301149e-26  -2.1504464271257589e-20  7.5156839009745882e-21  -3.0514283680020013e-22  5.2525739204472513e-21  5.6260650689594002e-21  5.8998509941920764e-21  4.4564923965113768e-21  1.0928767225725044e-25  -5.4013989562969432e-19  -4.8401193042903770e-18  -3.3188652742480747e-23  -1.5340805322351620e-16  -8.4034960651694398e-22  -7.0393338524092225e-17  -3.5776965554534830e-17  -2.9508569089301182e-21  -2.0956530410892198e-20  5.4779902340391165e-21  -8.3687274801532847e-23  -9.1793881528663130e-17  -1.7776119511962950e-18  -7.1501186180610127e-24  -1.7205323372093162e-18  1.0565507819268697e-25  -1.5050177513876315e-16  -1.0511072558464619e-16  -1.2340900772357097e-16  2.3946497185549711e-27  1.1227803562270478e-26  -2.5937958320903471e-24  5.6916797757921210e-26  -6.9346016466159497e-17  -3.1250502588741425e-25  3.6777709153341304e-27  -1.9580133067233083e-20  -1.4299529335029701e-17  -5.1737226770080272e-24  -1.2798495247064625e-16  -9.9520451857736831e-19  -7.7457679594895407e-18  -7.1842005454458240e-17  -6.8679886943730500e-19  -1.1617862385467637e-19  -5.6870914192135326e-19  -4.0177296011979058e-20  4.8939969576443085e-21  -3.1028192867780236e-20  5.8466607501595851e-21  -2.6229548316839203e-20  7.1136148682617302e-21  6.9103090317036956e-21  -2.9712512105527740e-20  -6.5892368165677530e-18  -5.5414541393175240e-17  -1.0330531326377840e-16  -8.5162203164965281e-26  1.5002616722775340e-26  -4.1902647100186803e-17  -3.1365192526694769e-18  7.6415466783206900e-21  6.2532549817436375e-21  2.7047202939820054e-21  5.7768102548147738e-21  5.1996973936593787e-27  8.0496418847371901e-21  7.9973854687109003e-21  7.8108043480338117e-21  7.9630553679614004e-21  -3.9432494950115383e-17  -2.7224427407869474e-17  -1.0812638292164786e-20  -3.3084155086958051e-19  -1.9123813548790286e-19  -4.8379469645688558e-20  -1.3063106970535630e-19  -9.5768708360295257e-29  1.5100314118001593e-21  -8.1391190341828207e-18  8.7672426705914161e-27  3.8124678198791048e-26  -7.8895708010518675e-17  -5.7871107094487964e-17  1.1741555703064848e-26  -4.7726796198504921e-17  -1.2009027396168229e-16  -1.6388397941337777e-16  -6.9510362898180614e-18  1.6756000042155901e-27  7.6570829040549346e-21  7.9787629114448469e-21  -1.6285324810652371e-20  -3.8448069112667062e-19  -2.2408195479227466e-19  -1.1739028254939862e-19  -1.6142905045009264e-16  -1.5407076906869474e-16  -7.5328627569427312e-17  3.2058777028164172e-27  -2.7710974030112890e-19  7.89939122