<?xml version="1.0"?>
<VTKFile type="UnstructuredGrid"  version="0.1"  >
<UnstructuredGrid>
<Piece  NumberOfPoints="6486" NumberOfCells="12696">
<Points>
<DataArray  type="Float64"  NumberOfComponents="3"  format="ascii">0 2.5 0  0 0 0  2.5 0 0  2.5 2.5 0  1.25 0 0  2.5 1.25 0  1.25 2.5 0  0 1.25 0  1.25 1.25 0  0 0.625 0  0.625 0 0  0.625 2.5 0  0 1.875 0  2.5 0.625 0  1.875 0 0  2.5 1.875 0  1.875 2.5 0  1.770833333333333 0.7291666666666666 0  0.7291666666666666 1.770833333333333 0  0.9375 0.625 0  1.875 1.5625 0  0.642361111111111 1.163194444444444 0  1.341594827586207 1.883979885057471 0  0.46875 0.46875 0  2.03125 2.03125 0  0.3626104797979798 1.513178661616162 0  1.381740196078431 0.4564950980392157 0  0.9375 2.172619047619047 0  2.172619047619047 0.9375 0  2.096354166666667 0.4036458333333332 0  0.4036458333333333 2.096354166666667 0  1.684027777777778 1.163194444444444 0  0.3418803418803419 0.8693910256410255 0  1.642742622813391 2.162164207604464 0  1.275619849389031 0.8465650753054845 0  0.9136284722222221 1.434461805555556 0  1.732437511238546 0.3406962303960658 0  0.9714402568595876 1.029779313093998 0  1.52281746031746 1.485615079365079 0  2.1875 1.71875 0  1.06819722569879 0.2997236128493951 0  2.136114211309524 1.303478422619048 0  0.3125 0 0  0 0.3125 0  2.5 2.1875 0  2.1875 2.5 0  0.3200021620376328 1.192323085056694 0  0.6738456129277992 0.8304377375553881 0  1.757891808928991 1.861952730357003 0  1.5625 0 0  0.9375 0 0  0.3125 2.5 0  2.1875 0 0  2.5 0.9375 0  0 0.9375 0  0 1.5625 0  0.9375 2.5 0  2.5 0.3125 0  0 2.1875 0  1.5625 2.5 0  2.5 1.5625 0  0.7448220909826522 0.3003573636608841 0  1.027298850574712 1.871151477832512 0  1.331260495098891 2.197262878816185 0  1.207917681892289 1.582765010956622 0  0.4339993447432606 1.801186844743261 0  0.6337298768939392 1.443093039772727 0  2.049851190476191 0.6826636904761904 0  0.6584821428571428 2.219122023809524 0  1.89575676467455 0.9798457973793544 0  1.437570562095628 1.059380588255917 0  1.502090052505845 0.6987070896496241 0  0.2040860661083546 1.705323965099331 0  0.2083333333333333 0.46875 0  0.5070952039991439 0.2211150679997147 0  0.6916302856529919 0.5813591430410241 0  2.265625 1.953125 0  2.2265625 2.2265625 0  1.886424081252096 2.243391360417365 0  1.40625 0.202164758520858 0  0.2269345238095238 0.2269345238095238 0  1.152730869673694 0.5225850378741401 0  1.885631899587912 1.312095130148776 0  1.614808884009367 0.9049784971014416 0  1.890095442220658 0.5126535558463003 0  2.323168682795699 0.46875 0  2.268811725689575 0.2304742875213018 0  0.6002389442105756 1.967426444210576 0  0.1768313172043011 2.03125 0  0.2311882743104251 2.269525712478698 0  2.03125 0.176831317204301 0  2.280262553344767 0.6954945504579233 0  1.979219539285994 1.809922269642997 0  2.336309523809524 1.09375 0  1.09375 2.336309523809524 0  0.9314042474388009 1.662973812215543 0  0.1634067999087722 1.40625 0  2.337090640094896 1.40625 0  1.141616997467638 2.069311773587991 0  0.46875 2.338939559681489 0  1.542440307908715 1.734944797244472 0  1.556713687786879 1.956977865354753 0  0.8264238995344066 1.975424467820646 0  1.466326331454725 1.275271369760862 0  1.655675324257095 0.5444159974393489 0  0.3385416666666666 0.6479255698005697 0  0 0.78125 0  0.5236073939200119 0.984090461540625 0  2.091665741047893 1.519793517904215 0  1.71875 2.5 0  0.5356538886262603 1.623137930505009 0  0 1.09375 0  0.1932884281517095 1.015625 0  0.8569313582417669 1.2198915584249 0  0.8876981284879677 0.8329884081524883 0  1.115618488474214 0.7219586973356271 0  1.186950366204949 1.043465130075318 0  2.057459118787237 1.110823087309335 0  1.830651283878689 2.049810069572418 0  1.689107969301489 1.367247437031697 0  0.4921048768039656 1.298643370653124 0  0.8213975694444444 2.336309523809524 0  2.03125 2.5 0  1.049729400480002 1.283723261332814 0  1.308101375801673 0.6489479469700392 0  2.5 2.34375 0  0.4968777175037714 0.7562964879736076 0  1.40625 2.5 0  1.501347663534097 2.307027627307738 0  1.602813712048603 0.1926218191360736 0  0.8393082906308107 0.463778306132633 0  1.682663349152719 1.598471865581041 0  0.7774174680851571 1.560004941327907 0  1.554204170364662 0.3898593897892066 0  1.842184459051087 0.186443880058197 0  1.358107417651776 1.696381759610015 0  1.18859291992392 1.77598670078022 0  0.1875331222687418 0.7609599743339348 0  1.339536743965101 1.422080365801479 0  0.7788179348750389 0.9955343414928611 0  0.9062978492805438 0.1919636509126373 0  1.256007360640958 0.3160320559396114 0  1.09375 0 0  1.174986727221844 0.1594990293443933 0  2.34375 1.796875 0  2.318026474511116 1.589177949022232 0  2.34375 2.5 0  1.672742954892153 2.332882724550692 0  0.2683637361947215 1.874801596909639 0  2.174770749820102 0.5581009131310781 0  1.443279522965991 0.8870068372898454 0  0.3385416666666667 0.3571428571428572 0  0.78125 0 0  2.060421048269335 2.314363248763811 0  1.088078737088509 0.8967352118723447 0  1.087825368444708 1.454931510884769 0  2.018308232129541 0.8548495425854904 0  1.943987311736842 0.3246298523011434 0  1.71875 0 0  1.85337849796276 1.144833312386208 0  2.3486328125 2.1044921875 0  1.407588788651747 2.042968789119587 0  2.336309523809524 0.865366648092144 0  2.34375 0 0  2.5 0.15625 0  0.15625 2.5 0  0 2.34375 0  0.1638044648294291 1.242263417405867 0  0.356216654757926 1.032569427322806 0  0.3188217956111817 1.355736727000647 0  0.5924956460852111 0.36112522004736 0  0.6594216488965849 0.1603472116132387 0  1.841804599497131 1.72214349266521 0  0.15625 0 0  0 0.15625 0  2.115898634821499 1.894570904464496 0  0.7821877980253907 0.7129993435924866 0  1.003820447087786 0.4516053462784233 0  0.477562948779147 1.138333049293613 0  0.719493678605015 1.305655360135975 0  0.9772457618587566 2.020350128938537 0  0.8764738248887107 1.826219722709673 0  1.254787875123819 2.339010653832026 0  2.343597354852534 1.249982759769001 0  0.78125 2.5 0  0.46875 2.5 0  2.5 1.40625 0  1.09375 2.5 0  2.5 0.78125 0  2.5 1.09375 0  2.03125 0 0  2.5 0.46875 0  1.40625 0 0  0.46875 0 0  0 0.46875 0  0 1.40625 0  0 1.71875 0  0 2.03125 0  2.5 1.71875 0  2.5 2.03125 0  2.005424054645407 1.653223486966518 0  0.1538730573856537 1.559850281736677 0  2.33984375 2.33984375 0  1.166539506212474 1.922878979538754 0  0.3914885633949916 1.65887232812171 0  0.5795503163042564 1.766243562569382 0  0.399533125920212 1.946786875081388 0  0.7866324979014098 2.127719094551316 0  0.3654683023546834 0.1495701132219454 0  0.1527388747131078 0.6116379440619215 0  2.013737577140188 1.391056634712135 0  1.17635437372994 2.213329084238133 0  1.737118141866284 1.010577140843115 0  2.200707118087222 1.164723314085963 0  1.697018908736685 1.993548551451517 0  0.5387621649009668 0.6070503962352419 0  2.032805785855952 0.5330427622570983 0  1.082699501358059 1.667818725183932 0  1.503819781540653 0.5468420196858188 0  2.015409142866072 2.175941657590429 0  1.752057611265444 0.869642097111018 0  0.612251684107783 2.356045720700959 0  1.902817102342857 0.6607642211999982 0  2.159616561739693 0.7867739969338844 0  0.5120038350106624 2.197302352398502 0  1.888200216011548 1.919501662489862 0  1.495909909726654 2.16028358757309 0  0.489139876703609 1.443203008943564 0  0.8819175670410521 0.3301172743913011 0  1.882591144370812 0.8155965192707721 0  1.133979796994841 1.172526771862882 0  2.206217447916667 2.084147135416667 0  2.20361328125 2.36279296875 0  1.395746985657004 1.556054166359645 0  1.704383111516207 1.734750450338683 0  0.9575737847222222 2.36274223823052 0  1.035150984253136 0.1302833343179028 0  1.383966125325753 0.7651479963479179 0  1.64003252158672 0.6824316405528895 0  2.22550785055421 1.487078576356817 0  1.760964431499756 1.48495222505201 0  1.276460980673788 2.004207003584658 0  0.1341477688427096 1.828777507920502 0  1.542261434180652 1.155296658359034 0  1.334627911613854 0.9696897472490321 0  1.30794231473696 1.119420615785191 0  0.7028260459857245 0.4438906910721139 0  1.625757433094055 1.84268057552138 0  0.9818707849053143 1.165603626132254 0  2.0086489901463 1.243134585689553 0  1.934584460420609 2.374094051915812 0  1.798434376789567 2.38671361912528 0  1.206314791201715 1.382064292497919 0  0.6333752893366955 0.7023738550008095 0  0.7796219811205605 1.42573253164258 0  1.564399711917382 1.026040828857629 0  0.3385416666666666 0.4889012896825397 0  0.1041666666666667 0.390625 0  0.989112246382566 1.543537365516289 0  2.025724425454636 0.9846960595520872 0  0.6602885475034063 2.086117390485779 0  1.607130551925032 1.267198646640915 0  0.1317864544877056 0.8896173683400176 0  1.755387840017567 2.230364320056445 0  1.301540702984401 0.1216289692748247 0  1.433170657577442 0.3331052752740999 0  1.500459610550388 0.113513924782439 0  0.6494291520606965 1.029586599619295 0  1.010146149868299 0.794897284196169 0  0.3700844198238017 2.235390157870766 0  0.3360891767780704 2.36656279435396 0  1.876856241037701 1.437150669863757 0  1.778674102957329 1.245979347269706 0  0.5472829890977179 0.1005517127039925 0  0.4669074189005698 0.3416784232954367 0  1.472765289289269 1.850899166481903 0  1.555853593327178 1.608452097912802 0  0.6708955559113426 1.646561631116984 0  0.8164699620322933 0.5924479455478063 0  0.3167738989468366 1.758696809749795 0  0.2788007305565096 1.605499483471246 0  0.7821720982350511 0.181524936294752 0  1.376812251214195 2.313340247908297 0  1.785652202614777 0.5962261755537186 0  1.761467296310972 0.4679567244718574 0  2.2265625 1.8359375 0  2.3828125 1.9140625 0  0.5279531607054191 2.071552361614785 0  2.397573269551114 0.234375 0  2.383578172599618 0.3589298466020009 0  0.1024267304488855 2.265625 0  0.1164218274003825 2.141070153397999 0  0.2696857594953064 2.135405441512016 0  2.164961300137334 0.1375322943529536 0  2.137757548369486 0.2724194778647587 0  2.238873711826398 0.3626419179496562 0  0.1001414910226386 0.234375 0  0.2176339285714286 0.3478422619047619 0  0.2503620791333544 0.1061694061057066 0  2.336445461915368 0.1250451055247424 0  0.2154004640409726 2.3918124
[...]
<PointData  Scalars="f_49-2"> 
<DataArray  type="Float64"  Name="f_49-2"  format="ascii">6.4656410754880764e-17  6.8226496334104545e-17  1.8156351032255626e-19  -7.5730429217468768e-16  2.8531946121571583e-17  3.4930770012388149e-19  8.7083491090007436e-17  2.2696911242770739e-16  1.5710897759425291e-15  1.2447164085169408e-16  5.5188922086085016e-17  7.5376070918741192e-17  1.9747750673934554e-16  1.4799221648572800e-19  5.4364532388129459e-18  -1.1089086794223284e-17  3.4925279663327448e-16  1.1038876251177968e-17  2.1919596789360553e-16  6.0496475725879277e-17  1.0275085514558287e-16  8.5546525132659124e-16  1.2770734840550827e-15  5.5344077207235795e-16  6.4799016082484738e-18  2.3222396012934709e-16  2.5324936280446724e-17  1.6211930695575905e-16  2.3070895040898254e-18  2.2167624687931655e-18  1.6701238484971587e-16  2.5557776286706683e-17  2.9424738968462556e-16  1.0071593247135716e-15  4.0104103955834507e-17  1.3485144993976022e-15  9.6378528697978882e-18  2.1181339098106888e-15  1.0406067558995138e-15  9.7110416656224794e-19  3.7956102938092471e-17  3.5565311548080121e-18  6.3097029834085822e-17  4.8452458067551437e-17  -2.6018584628789471e-16  -2.5729750364047580e-16  2.2336340344446054e-16  3.3146416227694183e-15  9.8234266383764384e-16  1.4216077821615458e-17  4.2300026145289469e-17  6.4183094659708097e-17  1.0302929178513090e-18  1.8692818028443098e-19  1.9806645367993183e-16  2.2938996342527465e-16  8.0097443803426272e-17  1.3689003061832529e-19  1.4087137971862474e-16  1.2156156025239293e-16  3.2549175792396306e-19  5.0764726138139195e-17  2.5431814388295407e-16  2.1823312563910740e-16  2.5868965026557745e-15  2.1503429286961304e-16  2.4883643424709490e-16  3.3007202590298691e-18  1.4338996387869453e-16  7.8318490257246318e-18  6.9382718416909371e-17  2.0658536274883521e-17  2.2176556089789288e-16  2.0875838540709601e-15  5.7840231471553029e-17  2.6362261611642337e-16  -9.7657769782535947e-17  -5.5068683960706962e-16  7.5742393444239522e-16  2.2029656884091395e-17  5.0132111330666657e-17  3.5162885237463112e-17  1.5114231194112918e-17  1.7296479721625393e-17  6.0059122212042184e-18  5.2978697519533932e-19  7.6175050714249749e-19  1.9495233446830488e-16  1.7352925660210939e-16  1.2195844244267446e-16  2.9590807887113010e-18  8.5667642529269121e-19  9.1666237835286512e-17  9.0128614019795886e-19  1.2536448487299735e-16  3.7660270810946891e-16  2.3227816473587471e-16  1.1380016568371880e-18  2.0106961057560829e-16  1.0928265176619309e-16  2.0099627519458243e-15  1.7483695892129786e-15  1.9639231121787263e-16  3.7796530119162968e-16  1.4577068541223698e-17  2.1680995960937189e-15  1.6588442740555354e-16  1.0299797846579360e-15  8.6524434205944691e-18  2.3524175458573140e-16  2.2837228094485301e-16  2.1623814867917814e-16  2.0597528504707227e-16  2.8373376160076046e-15  8.1750823659729194e-16  4.4771573864494919e-17  5.6644119388019407e-16  4.2286487503339166e-18  9.6373014229242699e-16  1.2088676213172741e-16  2.3454311073475244e-16  1.1925098985282709e-16  2.2451696910506284e-16  3.2793122741989745e-15  2.8564239274902860e-17  -5.7298529007993461e-16  3.3423612821154846e-15  9.0935602748021919e-17  2.5122319316186385e-16  1.3487207986871254e-17  4.6717928531581272e-17  6.2786619874654082e-16  2.7298302961107402e-16  1.7444667106260002e-17  6.0624362645800121e-18  2.5195450483318793e-15  9.9259331127191497e-16  1.6979830545667178e-16  1.9655387711817624e-15  3.5655485519863312e-15  4.4190297892480695e-17  3.0120009086770583e-17  3.5704359759853820e-17  3.3741982163476475e-17  -8.9396948484207449e-18  1.3798301288376915e-18  -7.5575768043737792e-16  5.0504253441299633e-16  2.0390657255541476e-16  1.4376692812090600e-18  2.5733767122135991e-17  4.1517901692215293e-16  4.8433589198487855e-17  6.5232210036861755e-17  2.7438064261301110e-16  2.7745113612888318e-15  4.7685045030280948e-18  4.4077611878638900e-18  9.4919149897127807e-18  9.9461906883240239e-18  -2.7990649375833129e-16  7.3451446436846494e-16  6.4677960118356890e-19  4.9632020397512627e-19  1.6323066035026410e-19  6.3331011391176003e-17  9.2362547319914502e-17  2.2716248810229010e-16  2.1646798451723595e-16  2.3146473202103122e-16  5.3626941460359206e-17  5.3764441074853828e-17  3.1262427811071532e-16  6.6711253842081033e-17  6.7606244229511506e-17  -6.5007323473895068e-17  5.3889414100115936e-16  4.0786457234534688e-17  2.7037879877356030e-16  6.6806187209041672e-16  1.9180204828368566e-16  2.1982920651560292e-16  1.3087045295607361e-16  1.0266096120315833e-18  7.7286242155907260e-17  6.6675933784723597e-17  3.8555593350208604e-19  8.3541357962279898e-17  1.8353891882973678e-19  2.6532091936184358e-19  2.9386039732915339e-18  1.4280566285280139e-19  1.9144428613355393e-17  5.9684580229708029e-17  8.5597825751382996e-17  2.3197506531331590e-16  2.1997963245635390e-16  1.7534106345952703e-16  -6.2726898643732991e-19  -6.9414727567590159e-17  4.0525918909652694e-17  2.3007745166784448e-16  -7.4151253729740950e-16  3.7947593287378049e-16  2.2764368252169399e-16  2.1853355005541154e-16  1.9488408327705003e-16  1.6909231880746630e-16  6.1222610184634051e-17  1.4808149280898300e-16  9.5666663862070104e-18  1.6133731945224485e-16  1.2919590190468093e-17  2.1543464837908337e-18  1.5656234804657146e-15  1.7818668862125530e-15  3.3810418817875674e-18  9.8728296967648262e-16  2.0220095341893373e-17  1.5855467058124502e-16  1.2047498506059476e-17  1.0804081850133768e-16  6.5500217600967305e-18  2.0269123906526215e-18  1.4586380355002706e-16  4.3064337827425911e-16  5.8343101138135216e-16  2.3281527478474719e-16  4.5279633798261922e-17  7.4075002907051968e-18  1.9556138767019433e-15  -3.4750049310647176e-16  -5.3532300696753747e-16  2.2753388760495962e-15  9.6095012912652345e-16  1.1406894390557017e-16  3.9207369120447737e-17  2.6069404588153702e-17  1.5251193378467048e-17  2.9634261673786533e-18  1.7369233068458369e-16  4.3199212363067143e-16  2.1033893251316944e-16  6.8476835522978858e-17  6.2948414951579983e-17  3.9536963529674341e-16  5.6804608584445486e-17  1.7881289068250438e-15  3.3085068390875198e-15  6.3573483891991521e-18  5.2708279999167295e-16  5.3056430127254338e-16  2.8285409709584130e-15  2.1133144342515726e-15  4.7609589034475848e-16  2.4380585166591677e-17  2.4803924144479335e-15  5.3978133504427494e-16  1.1081410223822157e-15  4.4787606051886610e-18  1.7313672427680653e-16  1.1319193686663550e-16  1.8601443386799575e-16  9.3044597615792524e-16  2.6430301719519118e-17  2.2425328156287482e-17  1.6977405155670905e-17  2.2667221265568654e-15  1.9152890277705668e-16  1.3328167842889889e-16  9.8265730658160874e-17  3.7201493620440019e-17  2.2612350172636688e-17  5.7094635203984033e-17  6.4761814849373848e-17  2.0918609486776895e-15  1.3448624122153126e-15  2.2746887676470273e-16  9.3163905859185568e-17  2.1821839925933045e-16  2.2935097387310366e-16  4.9431378514685967e-17  1.5983748008510548e-16  1.0161706581960187e-17  9.6071455643611125e-18  -2.4366076681505313e-17  -3.4337572367069530e-17  1.7495488002617024e-16  2.5586932820622999e-19  3.6204439537295099e-19  1.2050153314066294e-16  1.5529686663048529e-16  1.5482759390042427e-16  1.4737627593916245e-18  1.7683690459193678e-18  1.0625952252941281e-18  2.5381959231767691e-17  1.4702205351052170e-15  6.3908984536255604e-17  4.1286417961549105e-19  8.9540246775028460e-17  1.5418338882966305e-16  6.4508318800132536e-17  9.9516774865199050e-18  3.8641559422587616e-17  3.4028007961897174e-17  2.9233633536410241e-17  1.8669793612036795e-16  4.2764028812026992e-16  2.7217986017483122e-15  1.8984214776722432e-16  4.3878927081124023e-18  4.1635512987461531e-19  4.0723144590293442e-19  -5.1835481971407899e-16  1.7585976706140288e-16  2.0580235675678173e-16  2.0426706383341105e-16  1.9359487044462368e-17  4.9291371454355673e-18  4.4187313377194226e-16  6.8364840314104474e-18  1.5181808662173195e-15  2.3745340222509585e-16  3.0714689176312162e-16  1.7601348091497386e-18  4.6225327831939731e-17  1.9080240451083400e-18  2.1778379644842871e-16  2.2026937714162832e-16  5.2973982524741337e-19  1.4777250703608453e-16  3.4641913591979715e-16  1.8178091489017131e-17  7.3632388001742494e-17  4.0762443273116585e-18  1.0513890651139989e-16  2.3267721351816657e-16  2.3027421433398941e-16  6.2071438345159710e-19  1.8690359536989851e-18  3.5003035766205939e-15  1.2059208243037990e-17  1.4908165885211050e-17  6.8398093214322410e-16  7.3892303857946936e-18  3.7843060015649602e-19  1.3830794330338477e-15  2.3677764000493206e-16  9.8853657102839510e-17  2.7242327769416123e-15  4.3161232492372839e-16  2.8214299228601460e-15  1.7168666286761070e-15  1.3585647807066373e-17  2.2556542305220921e-16  2.2264600223810337e-16  6.2646689759315813e-19  5.2860038051914835e-19  1.0879763300004936e-16  8.2679545584119566e-17  -7.9092534612336107e-16  3.2313410200618395e-17  4.6006568057674675e-18  2.4644367028059068e-17  -3.8388431050732187e-17  1.7665651104384664e-17  1.3208388041648334e-15  1.8158675055383494e-16  2.0524596820579256e-16  1.2062085721506762e-15  2.3220283527344373e-16  5.4640020198855072e-17  -3.0872490094753127e-16  2.2667622947678798e-15  1.9189607789207079e-15  1.5243735362819712e-16  1.3226711329399408e-16  3.1479181537600184e-15  2.3774627316888384e-16  1.7224696299419921e-15  8.8610008611386452e-16  5.3622823328939155e-18  1.3138063394788639e-15  5.0906320276095129e-16  1.8784840034761615e-15  2.2386099916805129e-16  1.7369538229375102e-16  1.1704184621176607e-18  5.2034616201761389e-16  2.9833964283873848e-17  5.4560538977578071e-17  1.4632982944366379e-16  1.9006474068699124e-16  2.2793606276209844e-15  -1.8690793187813007e-16  1.1197308337822794e-15  1.3032658213395947e-17  -5.9035563489126501e-19  2.7710027334265926e-15  9.4252441191716708e-17  2.0446814058508170e-16  6.4270975292063023e-18  3.2330629569293464e-18  2.7602500306210823e-15  3.5339265286981429e-18  2.4340717695576103e-16  2.3188337139192048e-16  3.3315959427894093e-15  2.9590016366459231e-19  3.3424128341195157e-17  3.3584888946298918e-17  6.0923633778843046e-17  1.2757220960327281e-18  2.2427633873165601e-16  2.3109526843328163e-16  4.2890998309113977e-17  3.3593019055205240e-15  6.7837666788923087e-16  6.8331525356690634e-17  2.5353327289298747e-15  1.3257516361291745e-15  3.5188494323195781e-16  5.5880858113412803e-16  2.4229188718920862e-16  2.2662109052403495e-16  2.1093180357826701e-16  4.4789515735367905e-16  1.0727089582763301e-15  4.4358990641930443e-16  5.1419544370523043e-17  2.9847548662503703e-15  9.8216092708730005e-17  1.2640274816790614e-16  2.8421556340771213e-18  2.9537916818760769e-17  1.9101979780368646e-16  2.1565870889731002e-17  1.0251100166036065e-15  5.0503147993691349e-17  8.2013134895622769e-19  2.1867730696031615e-16  8.7815266171733115e-16  7.3046155726767935e-18  -6.9766544671017095e-16  3.6377381502562443e-15  1.2379695626572884e-15  2.4190992820666388e-17  4.2080768625890216e-17  7.1710703998016572e-19  1.6371037219965721e-15  2.1539758955082825e-16  2.7997966546316630e-16  -1.1161401571797075e-16  1.3439628715661079e-18  7.9715118570798728e-17  6.6102218885550388e-17  2.1521359949779819e-15  3.1709594618966096e-15  1.6859851346755497e-16  2.3575398622553289e-15  1.7529674018727725e-17  2.2862091813327913e-16  1.7652740546689741e-18  2.4484853736416737e-18  2.3192219528664432e-16  1.3626390566893125e-16  4.3418038037240281e-16  1.7263538441932628e-17  3.6896757735502004e-16  4.1297705150291391e-18  4.8923284260836810e-17  4.7587662666773542e-17  3.3937889920564049e-17  2.6528695139895324e-17  2.6078868305584520e-17  1.6495605819976333e-15  8.7210004128400997e-16  2.7099861814236411e-15  5.9507161180633659e-17  6.6301000195938201e-17  4.4993112893463929e-16  -3.7775705724023854e-16  1.2501472551635933e-16  3.4398044608119593e-16  1.5809787303997752e-16  6.7612043440648472e-17  3.7109980878912130e-17  1.2960571478473730e-15  1.6152884554785544e-16  2.4951575666195814e-16  2.1230794432611576e-17  1.4440793172223996e-17  2.2286378481291249e-17  1.8235287019114408e-19  1.3661473310645800e-18  8.9887173395384046e-18  9.7979109082095876e-16  1.9839375072089982e-16  -2.2437093387052800e-16  4.2526227235614593e-18  2.7830267099620422e-17  9.0564498607871517e-16  6.0892457041780286e-17  1.3619116125575272e-19  2.9898352224757453e-19  1.0333297106831122e-16  4.2329415326428371e-17  2.0953357936595637e-16  2.1348391919128712e-16  1.0450954111404822e-17  2.7865183485513996e-16  4.0755452149941853e-17  3.5274433081072132e-16  4.1506210180120364e-17  3.4098736817774435e-16  6.2308359311096994e-18  2.1132365169311896e-16  1.8975729963269418e-16  8.6298576485478680e-17  9.1472818184453201e-17  3.6084448633354058e-17  4.7511707354947309e-17  6.8286495603388151e-16  8.0331513676215840e-19  1.5103834776629460e-16  2.0772333646694337e-16  1.3351139529669972e-17  1.0113931975000172e-17  1.3272992212930297e-16  1.7533760829087599e-16  -8.7660794114438875e-18  2.3999584255417324e-18  3.0331378550488587e-17  1.6562404010172950e-19  3.6072984666710212e-18  3.4248334921464362e-18  5.9469121534061347e-18  -9.7267113700622450e-18  -3.7533488229826275e-17  -1.3424853906831152e-18  1.8084207937674596e-19  1.7111531638429296e-16  1.9497229744045544e-18  2.1557671214854015e-16  2.2306195117998910e-16  1.6878543556115381e-17  7.0902363004444834e-16  3.6668966528047418e-16  4.5271115262389530e-17  -2.8383705724657383e-16  -4.5131067958738118e-16  3.4497818368307258e-17  3.5027489881907924e-17  5.7650831363028385e-19  1.4347187780763453e-16  2.4955511871772375e-16  4.4101228486412919e-17  9.7179657063820387e-17  1.3150946958358075e-16  8.2941293726690704e-19  1.6097057397813648e-16  1.9689095076292856e-15  3.4288136206097634e-16  4.1065499358022625e-16  2.5274605842017463e-19  2.8879512538796285e-16  1.8616167492475788e-16  3.0265836007616279e-19  1.0619162093463917e-16  1.7592897841718704e-17  1.2865448904160697e-17  5.0283579792665164e-16  -6.2205014514869751e-16  1.6668053839122448e-15  7.8116697367453351e-16  -1.2557248793664302e-16  1.9210942986656719e-16  2.3161254998735645e-16  2.0933307898296324e-15  1.6661014315555967e-18  3.4696816339636678e-19  2.2082052534407597e-16  1.6009604105390697e-15  5.6056567456985197e-17  1.7900422409498237e-17  -2.8180592316706838e-17  1.8995159826003436e-15  2.0104517910027834e-16  3.0746473524928730e-16  1.5428256167114062e-15  2.2889853925269841e-16  2.3775794423997784e-16  3.7675558275736714e-17  2.0843155309092873e-18  7.8275203409697932e-18  5.7531623476169418e-17  2.3148407951658946e-16  5.1190815230101562e-17  5.5219306174618673e-17  5.2428791456625897e-17  1.1346683451837577e-16  5.4450601303525795e-17  4.7763091704295276e-19  2.3442268591362429e-19  2.7572773379684495e-15  1.9311248362133872e-15  1.2613101230514513e-16  2.3266163119894021e-16  1.0634885797039850e-15  7.1172482445945759e-16  1.2585462329902301e-18  4.0148244553679687e-17  -8.2495996252120116e-17  9.1182292123461673e-19  -2.7001775968151536e-16  8.6375124732105445e-16  -7.1819684998132455e-17  1.1493129258577165e-16  6.6107803061571723e-18  2.3036016490284166e-17  1.5779415092766721e-16  1.2528477874851555e-16  6.7347785872006060e-17  6.8656954177919690e-17  -1.0021868092960472e-16  2.4286047729314284e-17  -6.3833793342372734e-16  6.2209633955376457e-17  1.5492660791558162e-16  2.3091825546734934e-19  6.2610681708670474e-16  1.7544561659907219e-15  1.4407659090732150e-17  2.0596336188778451e-17  3.2978223746990845e-16  3.8144800064587543e-17  3.6902081526861846e-16  6.3127613029697961e-17  9.1589496771603232e-19  2.9045358774531928e-18  4.0816675629412799e-17  2.8904192143320847e-18  3.0139949288004133e-15  2.2372606211522196e-16  1.6366884160757597e-16  1.8470427350645573e-16  2.2865206681778974e-16  2.7970806374813333e-16  9.5087189247140573e-18  9.5692825637533232e-16  3.3639666390865207e-15  1.9320076792113718e-15  2.0538458500348730e-17  1.0605449249907612e-18  6.0944456859712136e-19  1.5664637600057712e-16  2.2685817851830547e-16  1.1522800081369342e-16  5.8944689036927153e-19  3.1300333458030315e-17  -5.6100563753826785e-16  7.8251389040168739e-17  1.9527952256275185e-17  7.9764386874346318e-17  6.5018873916261594e-17  8.6444626745421546e-17  2.2547562967076468e-16  7.7417307112063722e-17  1.4368956296293327e-19  6.8292721629033955e-18  1.1565438185575755e-17  2.9943637960797616e-19  3.7762374636660872e-19  3.8031865984425496e-19  2.0873686359628406e-16  2.2264829644725836e-16  2.3027499425565928e-16  8.4905160916345380e-17  1.4172245000769917e-16  4.5274733375097613e-17  4.1109507272136546e-18  1.8833982931564140e-16  6.2442778391679399e-17  6.5373808102613737e-17  1.1274460464274350e-16  1.4062654141530796e-19  5.7888980235386358e-17  1.7131683624872966e-17  6.1793499240724522e-17  5.6419060959825993e-17  3.1408533017323484e-16  -4.1394841775917008e-16  -7.0732119604988502e-16  -8.0672858440476594e-16  2.3143699522470961e-16  9.6929732918241754e-17  1.0652298789538735e-16  -2.7037497992702893e-18  -1.3507749162065248e-16  1.4050668272508210e-19  7.1522435172473921e-18  1.7781454899730574e-16  7.8389369388145305e-16  9.3879226406901378e-17  2.1671780363509000e-17  1.0779810313130977e-16  4.4199542106861861e-16  3.2653191648771074e-15  1.2280954868471139e-15  -6.0209651621726528e-18  6.0150363999593985e-17  2.9286313761751106e-15  1.1196832796579858e-16  1.8230044291388605e-16  1.5142527466913203e-15  3.8009271274264538e-17  1.7819206007730819e-16  2.3270002286467680e-16  2.2986383544949344e-16  2.2788030465483866e-16  2.3060878833193866e-16  1.4675438397349585e-16  5.1444368137126701e-16  1.6081143342268357e-18  2.0105189260079611e-15  2.1002858442980231e-16  2.5524542859239137e-18  3.3529945919320139e-15  6.5709241649511670e-19  2.3171103919515671e-16  1.9196991163713527e-16  2.6702027808180166e-15  2.4118367937625082e-16  1.9018099299204320e-15  1.9374140586608120e-16  2.2495063666892401e-17  3.0644299861801229e-15  3.5225564558824041e-15  5.1092343144725722e-18  1.0230044568563770e-18  2.1461691198724180e-15  2.3449269973694259e-18  1.3466124097900002e-18  5.8417721915098980e-16  1.6435971390328470e-17  1.1626147013202260e-16  4.3483576534579904e-17  1.2141061983689847e-16  2.3442187987260075e-18  2.2588722826640368e-16  2.2135528616752294e-16  9.4128666869310751e-16  1.6359333333803176e-17  9.3585447017261939e-18  8.4469257920334120e-18  5.8865275592903834e-18  1.6192888469329904e-16  2.3218855119167103e-16  2.6576369825500135e-16  2.1811066200736091e-16  2.9686929558291609e-17  2.0653549220794685e-16  2.0051704460846399e-16  1.6516053982378258e-16  3.2734851577320982e-17  9.2506142381337619e-18  7.1004033630754592e-18  1.7107346009609828e-16  2.5628810516319285e-16  2.3033843366868786e-16  2.2889573442673854e-16  2.2234592447747283e-16  4.9624548471065455e-16  1.4848491151223678e-18  1.4568737223326627e-16  1.4530963102265313e-16  1.4365605462451710e-16  1.4823997250701172e-16  1.3088348004533506e-16  4.0702343580889297e-16  5.6232509081816690e-16  2.0628586424393629e-17  3.0081384813804108e-18  3.7959692541878536e-19  2.6786369234309255e-18  5.3810556544283051e-16  3.0395279569549136e-16  2.2519733326538325e-16  1.9407071252702828e-16  3.2925469470297757e-18  6.8325931353705342e-16  2.5281412903265069e-17  6.3125760269834780e-16  1.9562237864601805e-15  5.2487505153940840e-18  5.0561957664693383e-18  5.2824905792532454e-16  -6.0657226352042328e-17  2.4296027535683788e-18  8.0500232985656444e-17  2.3269901312841542e-16  2.6050689846465644e-15  5.5408029707652770e-16  2.2987391527993731e-16  1.6687167379308417e-15  1.2901818389535593e-15  2.1213148770322858e-16  5.7473591117688457e-19  3.2915038375028238e-17  1.8640773936652148e-15  2.3500103198193669e-16  2.3259106015817396e-16  1.2607216938885230e-16  9.1511038501223745e-17  4.4905519833336102e-18  7.9537133770415775e-17  4.8676471984565471e-18  5.6861442466896695e-19  -1.8998915727002085e-16  1.6298497135862642e-16  1.4742996045393985e-17  -6.7011314150428486e-16  2.2407888265438837e-18  1.3204181083031277e-15  1.1805432738830304e-16  1.3560341672105382e-16  1.536224848