<?xml version="1.0"?>
<VTKFile type="UnstructuredGrid"  version="0.1"  >
<UnstructuredGrid>
<Piece  NumberOfPoints="6486" NumberOfCells="12696">
<Points>
<DataArray  type="Float64"  NumberOfComponents="3"  format="ascii">0 2.5 0  0 0 0  2.5 0 0  2.5 2.5 0  1.25 0 0  2.5 1.25 0  1.25 2.5 0  0 1.25 0  1.25 1.25 0  0 0.625 0  0.625 0 0  0.625 2.5 0  0 1.875 0  2.5 0.625 0  1.875 0 0  2.5 1.875 0  1.875 2.5 0  1.770833333333333 0.7291666666666666 0  0.7291666666666666 1.770833333333333 0  0.9375 0.625 0  1.875 1.5625 0  0.642361111111111 1.163194444444444 0  1.341594827586207 1.883979885057471 0  0.46875 0.46875 0  2.03125 2.03125 0  0.3626104797979798 1.513178661616162 0  1.381740196078431 0.4564950980392157 0  0.9375 2.172619047619047 0  2.172619047619047 0.9375 0  2.096354166666667 0.4036458333333332 0  0.4036458333333333 2.096354166666667 0  1.684027777777778 1.163194444444444 0  0.3418803418803419 0.8693910256410255 0  1.642742622813391 2.162164207604464 0  1.275619849389031 0.8465650753054845 0  0.9136284722222221 1.434461805555556 0  1.732437511238546 0.3406962303960658 0  0.9714402568595876 1.029779313093998 0  1.52281746031746 1.485615079365079 0  2.1875 1.71875 0  1.06819722569879 0.2997236128493951 0  2.136114211309524 1.303478422619048 0  0.3125 0 0  0 0.3125 0  2.5 2.1875 0  2.1875 2.5 0  0.3200021620376328 1.192323085056694 0  0.6738456129277992 0.8304377375553881 0  1.757891808928991 1.861952730357003 0  1.5625 0 0  0.9375 0 0  0.3125 2.5 0  2.1875 0 0  2.5 0.9375 0  0 0.9375 0  0 1.5625 0  0.9375 2.5 0  2.5 0.3125 0  0 2.1875 0  1.5625 2.5 0  2.5 1.5625 0  0.7448220909826522 0.3003573636608841 0  1.027298850574712 1.871151477832512 0  1.331260495098891 2.197262878816185 0  1.207917681892289 1.582765010956622 0  0.4339993447432606 1.801186844743261 0  0.6337298768939392 1.443093039772727 0  2.049851190476191 0.6826636904761904 0  0.6584821428571428 2.219122023809524 0  1.89575676467455 0.9798457973793544 0  1.437570562095628 1.059380588255917 0  1.502090052505845 0.6987070896496241 0  0.2040860661083546 1.705323965099331 0  0.2083333333333333 0.46875 0  0.5070952039991439 0.2211150679997147 0  0.6916302856529919 0.5813591430410241 0  2.265625 1.953125 0  2.2265625 2.2265625 0  1.886424081252096 2.243391360417365 0  1.40625 0.202164758520858 0  0.2269345238095238 0.2269345238095238 0  1.152730869673694 0.5225850378741401 0  1.885631899587912 1.312095130148776 0  1.614808884009367 0.9049784971014416 0  1.890095442220658 0.5126535558463003 0  2.323168682795699 0.46875 0  2.268811725689575 0.2304742875213018 0  0.6002389442105756 1.967426444210576 0  0.1768313172043011 2.03125 0  0.2311882743104251 2.269525712478698 0  2.03125 0.176831317204301 0  2.280262553344767 0.6954945504579233 0  1.979219539285994 1.809922269642997 0  2.336309523809524 1.09375 0  1.09375 2.336309523809524 0  0.9314042474388009 1.662973812215543 0  0.1634067999087722 1.40625 0  2.337090640094896 1.40625 0  1.141616997467638 2.069311773587991 0  0.46875 2.338939559681489 0  1.542440307908715 1.734944797244472 0  1.556713687786879 1.956977865354753 0  0.8264238995344066 1.975424467820646 0  1.466326331454725 1.275271369760862 0  1.655675324257095 0.5444159974393489 0  0.3385416666666666 0.6479255698005697 0  0 0.78125 0  0.5236073939200119 0.984090461540625 0  2.091665741047893 1.519793517904215 0  1.71875 2.5 0  0.5356538886262603 1.623137930505009 0  0 1.09375 0  0.1932884281517095 1.015625 0  0.8569313582417669 1.2198915584249 0  0.8876981284879677 0.8329884081524883 0  1.115618488474214 0.7219586973356271 0  1.186950366204949 1.043465130075318 0  2.057459118787237 1.110823087309335 0  1.830651283878689 2.049810069572418 0  1.689107969301489 1.367247437031697 0  0.4921048768039656 1.298643370653124 0  0.8213975694444444 2.336309523809524 0  2.03125 2.5 0  1.049729400480002 1.283723261332814 0  1.308101375801673 0.6489479469700392 0  2.5 2.34375 0  0.4968777175037714 0.7562964879736076 0  1.40625 2.5 0  1.501347663534097 2.307027627307738 0  1.602813712048603 0.1926218191360736 0  0.8393082906308107 0.463778306132633 0  1.682663349152719 1.598471865581041 0  0.7774174680851571 1.560004941327907 0  1.554204170364662 0.3898593897892066 0  1.842184459051087 0.186443880058197 0  1.358107417651776 1.696381759610015 0  1.18859291992392 1.77598670078022 0  0.1875331222687418 0.7609599743339348 0  1.339536743965101 1.422080365801479 0  0.7788179348750389 0.9955343414928611 0  0.9062978492805438 0.1919636509126373 0  1.256007360640958 0.3160320559396114 0  1.09375 0 0  1.174986727221844 0.1594990293443933 0  2.34375 1.796875 0  2.318026474511116 1.589177949022232 0  2.34375 2.5 0  1.672742954892153 2.332882724550692 0  0.2683637361947215 1.874801596909639 0  2.174770749820102 0.5581009131310781 0  1.443279522965991 0.8870068372898454 0  0.3385416666666667 0.3571428571428572 0  0.78125 0 0  2.060421048269335 2.314363248763811 0  1.088078737088509 0.8967352118723447 0  1.087825368444708 1.454931510884769 0  2.018308232129541 0.8548495425854904 0  1.943987311736842 0.3246298523011434 0  1.71875 0 0  1.85337849796276 1.144833312386208 0  2.3486328125 2.1044921875 0  1.407588788651747 2.042968789119587 0  2.336309523809524 0.865366648092144 0  2.34375 0 0  2.5 0.15625 0  0.15625 2.5 0  0 2.34375 0  0.1638044648294291 1.242263417405867 0  0.356216654757926 1.032569427322806 0  0.3188217956111817 1.355736727000647 0  0.5924956460852111 0.36112522004736 0  0.6594216488965849 0.1603472116132387 0  1.841804599497131 1.72214349266521 0  0.15625 0 0  0 0.15625 0  2.115898634821499 1.894570904464496 0  0.7821877980253907 0.7129993435924866 0  1.003820447087786 0.4516053462784233 0  0.477562948779147 1.138333049293613 0  0.719493678605015 1.305655360135975 0  0.9772457618587566 2.020350128938537 0  0.8764738248887107 1.826219722709673 0  1.254787875123819 2.339010653832026 0  2.343597354852534 1.249982759769001 0  0.78125 2.5 0  0.46875 2.5 0  2.5 1.40625 0  1.09375 2.5 0  2.5 0.78125 0  2.5 1.09375 0  2.03125 0 0  2.5 0.46875 0  1.40625 0 0  0.46875 0 0  0 0.46875 0  0 1.40625 0  0 1.71875 0  0 2.03125 0  2.5 1.71875 0  2.5 2.03125 0  2.005424054645407 1.653223486966518 0  0.1538730573856537 1.559850281736677 0  2.33984375 2.33984375 0  1.166539506212474 1.922878979538754 0  0.3914885633949916 1.65887232812171 0  0.5795503163042564 1.766243562569382 0  0.399533125920212 1.946786875081388 0  0.7866324979014098 2.127719094551316 0  0.3654683023546834 0.1495701132219454 0  0.1527388747131078 0.6116379440619215 0  2.013737577140188 1.391056634712135 0  1.17635437372994 2.213329084238133 0  1.737118141866284 1.010577140843115 0  2.200707118087222 1.164723314085963 0  1.697018908736685 1.993548551451517 0  0.5387621649009668 0.6070503962352419 0  2.032805785855952 0.5330427622570983 0  1.082699501358059 1.667818725183932 0  1.503819781540653 0.5468420196858188 0  2.015409142866072 2.175941657590429 0  1.752057611265444 0.869642097111018 0  0.612251684107783 2.356045720700959 0  1.902817102342857 0.6607642211999982 0  2.159616561739693 0.7867739969338844 0  0.5120038350106624 2.197302352398502 0  1.888200216011548 1.919501662489862 0  1.495909909726654 2.16028358757309 0  0.489139876703609 1.443203008943564 0  0.8819175670410521 0.3301172743913011 0  1.882591144370812 0.8155965192707721 0  1.133979796994841 1.172526771862882 0  2.206217447916667 2.084147135416667 0  2.20361328125 2.36279296875 0  1.395746985657004 1.556054166359645 0  1.704383111516207 1.734750450338683 0  0.9575737847222222 2.36274223823052 0  1.035150984253136 0.1302833343179028 0  1.383966125325753 0.7651479963479179 0  1.64003252158672 0.6824316405528895 0  2.22550785055421 1.487078576356817 0  1.760964431499756 1.48495222505201 0  1.276460980673788 2.004207003584658 0  0.1341477688427096 1.828777507920502 0  1.542261434180652 1.155296658359034 0  1.334627911613854 0.9696897472490321 0  1.30794231473696 1.119420615785191 0  0.7028260459857245 0.4438906910721139 0  1.625757433094055 1.84268057552138 0  0.9818707849053143 1.165603626132254 0  2.0086489901463 1.243134585689553 0  1.934584460420609 2.374094051915812 0  1.798434376789567 2.38671361912528 0  1.206314791201715 1.382064292497919 0  0.6333752893366955 0.7023738550008095 0  0.7796219811205605 1.42573253164258 0  1.564399711917382 1.026040828857629 0  0.3385416666666666 0.4889012896825397 0  0.1041666666666667 0.390625 0  0.989112246382566 1.543537365516289 0  2.025724425454636 0.9846960595520872 0  0.6602885475034063 2.086117390485779 0  1.607130551925032 1.267198646640915 0  0.1317864544877056 0.8896173683400176 0  1.755387840017567 2.230364320056445 0  1.301540702984401 0.1216289692748247 0  1.433170657577442 0.3331052752740999 0  1.500459610550388 0.113513924782439 0  0.6494291520606965 1.029586599619295 0  1.010146149868299 0.794897284196169 0  0.3700844198238017 2.235390157870766 0  0.3360891767780704 2.36656279435396 0  1.876856241037701 1.437150669863757 0  1.778674102957329 1.245979347269706 0  0.5472829890977179 0.1005517127039925 0  0.4669074189005698 0.3416784232954367 0  1.472765289289269 1.850899166481903 0  1.555853593327178 1.608452097912802 0  0.6708955559113426 1.646561631116984 0  0.8164699620322933 0.5924479455478063 0  0.3167738989468366 1.758696809749795 0  0.2788007305565096 1.605499483471246 0  0.7821720982350511 0.181524936294752 0  1.376812251214195 2.313340247908297 0  1.785652202614777 0.5962261755537186 0  1.761467296310972 0.4679567244718574 0  2.2265625 1.8359375 0  2.3828125 1.9140625 0  0.5279531607054191 2.071552361614785 0  2.397573269551114 0.234375 0  2.383578172599618 0.3589298466020009 0  0.1024267304488855 2.265625 0  0.1164218274003825 2.141070153397999 0  0.2696857594953064 2.135405441512016 0  2.164961300137334 0.1375322943529536 0  2.137757548369486 0.2724194778647587 0  2.238873711826398 0.3626419179496562 0  0.1001414910226386 0.234375 0  0.2176339285714286 0.3478422619047619 0  0.2503620791333544 0.1061694061057066 0  2.336445461915368 0.1250451055247424 0  0.2154004640409726 2.3918124
[...]
<PointData  Scalars="f_124-2"> 
<DataArray  type="Float64"  Name="f_124-2"  format="ascii">-7.9640465749681517e-12  -9.5654777151073097e-13  -2.1076279749147180e-13  -3.2291727232939755e-12  -7.5010548007200245e-13  -2.0064008887893736e-13  -8.2184018298479303e-12  -9.8599332710255860e-12  -5.7080802462451192e-12  -5.3855126001145431e-12  -9.5467441066163727e-13  -8.1333482424627715e-12  -1.0786093223803328e-11  -1.8370144247720081e-13  -4.5968917599642363e-13  -9.1570613428427734e-13  -7.2325933032391850e-12  -5.1986831662593572e-13  -1.0917865813471433e-11  -1.7355013298282110e-12  -2.6816452291786302e-12  -9.3677333700386822e-12  -1.0009784337430316e-11  -2.9882720652667892e-12  -5.0952832551879152e-12  -1.0697774704739702e-11  -7.0768307457479597e-13  -1.0031758944740428e-11  -3.1863330935377196e-13  -3.4734139016802907e-13  -1.0248910797603559e-11  -1.3381765728203992e-12  -7.6228238410703529e-12  -8.9037171830032882e-12  -1.5094452672397498e-12  -1.0100218094899106e-11  -5.1726856785191133e-13  -5.8382093504831006e-12  -5.4433519285964348e-12  -1.5657171257665657e-12  -8.4051151363972138e-13  -5.3302526764319770e-13  -9.7398936773995352e-13  -2.1697405404616288e-12  -2.1723115622341367e-12  -5.4385012938958597e-12  -9.6743814522978187e-12  -6.0767604527584194e-12  -6.5690258993708447e-12  -6.0073530514495106e-13  -8.7567446184777303e-13  -7.9172999905928487e-12  -3.1917177681311125e-13  -1.8018201524872991e-13  -8.2902526868584654e-12  -1.0767033088886317e-11  -8.1473520516910791e-12  -1.9537124169876777e-13  -9.8114810805343415e-12  -7.9886483317409716e-12  -3.4600655292016151e-13  -1.0045729521616868e-12  -1.0742449733248845e-11  -9.7285455710077788e-12  -9.4614994355078588e-12  -1.0901511176912519e-11  -1.0541512055832260e-11  -3.6603488650737347e-13  -9.7424083989402469e-12  -5.1106217097397997e-13  -1.9436311135472188e-12  -7.0026422575228371e-13  -1.0907431259775305e-11  -3.6995655010982701e-12  -1.0994480406702537e-12  -2.7620057284983009e-12  -2.3458337155025304e-12  -4.3976042368795848e-12  -7.4165016637576101e-12  -6.7894953985400929e-13  -1.4844956754807072e-12  -8.7778295795349074e-13  -1.1644100547168487e-12  -7.9009278642927307e-13  -4.4114820088478459e-13  -2.4555144436027403e-13  -2.7673393981147935e-13  -1.0675189400160629e-11  -1.0438255814979082e-11  -9.3848236064066270e-12  -3.8265876947553252e-13  -2.6119748736455725e-13  -3.7954991158507544e-12  -2.4787892623503436e-13  -9.1645834041977236e-12  -1.0772801500207487e-11  -1.0415230926073938e-11  -3.7427674229077639e-13  -1.0328535117820264e-11  -9.0371071531220293e-12  -7.7535609915680647e-12  -8.9967802277358850e-12  -1.0679770983162701e-11  -3.5986481799140142e-12  -5.7097632486629083e-13  -5.5521267310445902e-12  -7.1180727021701828e-12  -8.3735350480791940e-12  -1.1407293814846434e-12  -7.7469823845444456e-12  -1.0872972613740207e-11  -9.1764176766682973e-12  -8.7703805841143009e-12  -8.9472884687431475e-12  -4.1045918069956153e-12  -1.4996618336288090e-12  -3.8625000737767564e-12  -4.4243723711947930e-13  -7.1099703156660148e-12  -2.5469009563352125e-12  -1.0116233963106906e-11  -9.1333611266499741e-12  -6.4677628537955198e-12  -8.1561568164149441e-12  -8.4611772931732465e-13  -2.8415014732876344e-12  -6.3172276139463762e-12  -8.1359583389629891e-12  -9.0278566409813923e-12  -5.8210734462420532e-13  -1.2483827427359232e-12  -4.8246351519843299e-12  -1.0760375891319215e-11  -6.1455612101288751e-13  -4.6273919662925097e-13  -9.1097877776504701e-12  -1.0399417885291180e-11  -6.7763283814198375e-12  -6.6974216183940036e-12  -7.2167200058657998e-12  -8.8993328870024513e-13  -7.5806331072749805e-13  -8.1655420384702547e-13  -7.9241958917632789e-13  -1.1592240169456233e-12  -6.6850362303390417e-13  -4.2392616102998583e-12  -8.5055767369945453e-12  -1.0823107515616588e-11  -3.0547613575752195e-13  -1.1024232389484604e-12  -2.3716208267765231e-12  -9.1963818781377234e-13  -6.2216183523920789e-12  -3.0761136943690460e-12  -9.3607729165850884e-12  -3.9278510776847776e-13  -4.1674791851542975e-13  -5.3141056100073330e-13  -7.6918660618038318e-13  -2.6586816532609490e-12  -9.8781167716204761e-12  -2.3555906819034444e-13  -2.6253447162326421e-13  -2.0565446700211480e-13  -7.9519042768814341e-12  -8.8147792388141183e-12  -9.8788740863769979e-12  -8.7773206738150133e-12  -1.0294598966881066e-11  -1.4586118057329715e-12  -9.6000100495911995e-13  -4.3863158587837306e-12  -9.5502993374533752e-13  -1.1714632163716758e-12  -3.1869248231278563e-12  -3.5428036117659478e-12  -9.5834086139839296e-13  -9.3525003669717390e-12  -9.9886831930110783e-12  -1.0553528003706646e-11  -1.0863181175315982e-11  -9.1574379392265136e-12  -2.7814111708594717e-13  -8.1359517953557958e-12  -7.9644144460466968e-12  -2.4081978027333260e-13  -8.1871986476928524e-12  -1.8413130307734466e-13  -1.8595163093444909e-13  -3.9056338215337835e-13  -1.8716657770235154e-13  -6.6995339905478260e-13  -9.7563130434173946e-13  -3.6622545568808206e-12  -1.0393856045045736e-11  -1.0909124223080030e-11  -1.0462234317147982e-11  -5.5597180642668983e-13  -1.4828073013753458e-12  -2.2847922488049067e-12  -1.0767165430382112e-11  -3.9197046183174883e-12  -1.0548134100649268e-11  -1.0884833434511790e-11  -1.0923428798407078e-11  -1.0706159869827691e-11  -1.0212393616611136e-11  -1.0809385951429068e-12  -5.2780390634781219e-12  -9.9756512198251578e-13  -9.8345559036181846e-12  -7.4763192924410450e-13  -3.4548281404965171e-13  -8.0247433257090221e-12  -4.2713358459025438e-12  -3.7533072388114713e-13  -1.0471018549577151e-11  -6.4932052453791381e-13  -6.0951195667290596e-12  -5.7800185342969864e-13  -8.9521464994155456e-12  -4.3999954677795818e-13  -3.1616357692864115e-13  -9.8460370880105585e-12  -5.6817466124784971e-12  -9.4829144805379279e-12  -1.0558090974623966e-11  -9.3955565027639687e-13  -4.5797121126036020e-13  -6.0363301134553137e-12  -3.7562984599829084e-12  -5.0859079845521784e-12  -7.5299291443929578e-12  -6.0279128805536320e-12  -8.9733466349513136e-12  -8.4673313886824959e-13  -9.2590237039076533e-13  -5.8878393210923698e-13  -6.7166116906989691e-13  -3.0032151949765938e-12  -1.0284987166492874e-11  -1.0871882503524272e-11  -1.9650327492982343e-12  -1.9127017783003791e-12  -3.4839551105429691e-12  -1.5920971990484170e-12  -7.7520604741497507e-12  -7.5023413452688509e-12  -6.7187771219353862e-13  -7.1606525771937658e-12  -7.8424323885873785e-12  -7.7364488744927444e-12  -4.7800455118844599e-12  -1.0401591285669752e-11  -1.2185443157906645e-12  -3.7746247051146930e-12  -2.8594464343443393e-12  -1.0364818889372589e-11  -4.0687355996570793e-13  -1.0321623601477590e-11  -2.3664425678062546e-12  -7.9102332176684589e-12  -8.3218770110238905e-12  -7.2824598494926434e-13  -6.7379180201234527e-13  -6.2980783630449529e-13  -8.4077417497119441e-12  -2.6666290120962980e-12  -9.6305945018772806e-12  -8.7768062789476709e-12  -1.7741227059485485e-12  -1.3175684810023209e-12  -9.7321629697826808e-13  -1.7671438367732738e-12  -9.1209993209800517e-12  -6.3263084246662672e-12  -1.0893074970699882e-11  -2.1607627754184833e-12  -1.0913618346139618e-11  -1.0827845602402929e-11  -9.2917481207476910e-13  -9.1757749486699952e-12  -5.0206117196746293e-13  -5.0668959143137660e-13  -1.9685742737499140e-12  -1.4328619323671275e-12  -1.0367177087520082e-11  -2.2520184077636397e-13  -2.2792985926654997e-13  -9.4018700758595221e-12  -1.0074018840790283e-11  -1.0089068569949321e-11  -3.2419815279761759e-13  -3.3381897895167332e-13  -2.8994062230928217e-13  -1.5104521203717402e-12  -2.4795814033487727e-12  -1.0372662259926635e-12  -2.5434405516679429e-13  -8.5617348086189446e-12  -9.8138963852826409e-12  -1.0484249765909649e-12  -5.2604176323874373e-13  -1.1955059293251203e-12  -8.1263628038563426e-13  -7.8007117100365842e-13  -1.0589426478592279e-11  -4.0119524035898123e-12  -8.6980292417626586e-12  -1.0679066241684096e-11  -4.2905011795449221e-13  -2.2584515151028636e-13  -2.1778164064066437e-13  -3.0514851381958152e-12  -2.4247694527918328e-12  -1.0810172126273389e-11  -1.0807354861702243e-11  -7.6203819991042521e-13  -1.1028372898957201e-12  -3.8939311807055445e-12  -4.6532095797154494e-13  -7.5584884843191735e-12  -1.0886085364529509e-11  -1.0806307927668315e-11  -3.1054557570385850e-13  -9.0222566737832543e-13  -3.0629794223834186e-13  -1.0075198635702952e-11  -9.4393349266889089e-12  -2.1905419745103147e-13  -6.2682192853264801e-12  -9.9734175177895101e-12  -2.3871710028969331e-12  -4.5448024739684157e-12  -3.9862986979225571e-13  -8.6417289392732656e-12  -1.0566227577815194e-11  -1.0148757941232206e-11  -3.4607323776641684e-13  -4.0135655476165262e-13  -7.3915861121282508e-12  -5.6498080967984124e-13  -6.1616983610948525e-13  -6.8517453993386832e-12  -4.9140954902651693e-13  -5.4588423056838976e-13  -8.9617350923265659e-12  -3.0482998202711092e-12  -8.6774030118590036e-12  -9.2584419008570037e-12  -6.6769678988373007e-12  -4.4690830069804381e-12  -4.8694820590619784e-12  -5.6259088638970696e-13  -1.0862665762855827e-11  -9.5728529756899240e-12  -2.5262609076275467e-13  -2.1691720203544546e-13  -8.5646186497461504e-12  -8.4939680416164107e-12  -3.5281670941188551e-12  -1.8004982038000966e-12  -7.2208970845351114e-13  -7.1953245789738277e-13  -5.9812874844195007e-12  -6.2175929405421593e-13  -8.1582397002852553e-12  -1.0420307740671662e-11  -1.0749894670767061e-11  -5.2639784149416880e-12  -1.0588806772228406e-11  -1.4541269031567008e-12  -4.9844560588578035e-12  -7.8753690175411372e-12  -5.7935153353880147e-12  -2.5363602105444631e-12  -8.4267140900007323e-12  -7.5782884110549218e-12  -2.8607781079799640e-12  -4.9604672116669744e-12  -4.3260751545279258e-12  -4.0745489267232022e-13  -9.8742462884357026e-12  -1.0667456022721052e-11  -1.0020974184767362e-11  -1.0599546048988189e-11  -1.0241414620563132e-11  -2.6623445505704921e-13  -1.0585156217180299e-11  -7.6524756530371142e-13  -1.0639800930878342e-12  -9.7384090806570997e-12  -8.0036979241469534e-12  -5.7306323908024640e-12  -3.4292610794457679e-12  -5.4041621095762375e-12  -5.6645021952105199e-13  -1.0071871496517861e-12  -9.3264916115933118e-12  -4.1048014578904743e-12  -8.6229772368590434e-12  -5.1222042254081451e-13  -3.6313364787362901e-13  -8.2166925789029011e-12  -4.6471174435076581e-13  -8.5332814521267017e-12  -1.0786934537687094e-11  -6.8956374052962206e-12  -2.3094971081302706e-13  -9.8501695460773936e-13  -1.1980661843049616e-12  -1.8567482677914553e-12  -3.0394347902927608e-13  -1.0919660732165662e-11  -1.0772678534114517e-11  -1.8217418139219300e-12  -5.4111947125196762e-12  -9.0363462486747010e-12  -8.0232810405756897e-12  -7.0122536099031886e-12  -9.7495356288809824e-12  -4.9339437134260828e-12  -9.0977422998615378e-12  -1.0338469026716001e-11  -9.8213453060190921e-12  -1.0862513673881417e-11  -4.5539265802199990e-12  -6.9403751642846652e-12  -6.0181835157724591e-12  -9.3691328266233110e-13  -8.8713464508088769e-12  -8.5654444164504022e-12  -9.3327942397251751e-12  -3.7681593292346981e-13  -7.5108743037564093e-13  -1.0592655239576704e-11  -6.7861398603128867e-13  -9.5199112473264217e-12  -9.3154998336667662e-13  -2.6673148424603405e-13  -1.0909093362634469e-11  -4.3993910226009352e-12  -4.7797528717738538e-13  -4.5868016006864330e-12  -6.8445416239847565e-12  -6.3413522612352036e-12  -7.6343497005048953e-13  -8.7685577837931588e-13  -2.9078623717917945e-13  -1.0124482802686785e-11  -9.1886321734346033e-12  -9.4325197800898279e-12  -2.0662871099597700e-12  -2.8192477509443511e-13  -8.1341926548115873e-12  -1.8464564352818891e-12  -6.4007808170834778e-12  -8.3983208415279174e-12  -7.1936663164735554e-12  -8.8565288286268729e-12  -6.1486394409041726e-13  -1.0013174917033200e-11  -3.5155139726384507e-13  -3.6702520254252420e-13  -1.0359230787591307e-11  -9.5034350798639522e-12  -8.2792729131552880e-12  -6.0673479101016225e-13  -5.8138636423048378e-12  -4.1952397188316107e-13  -1.1349557022258812e-12  -1.4267881287785533e-12  -7.9772813137485753e-13  -7.1982582704065769e-13  -7.1455893950727778e-13  -9.9596639823710544e-12  -1.0340316197117080e-11  -8.9764707522819304e-12  -1.0079492822339622e-12  -7.9337749488769344e-12  -6.8667123742458069e-12  -5.3139656146886441e-12  -9.3881181335512117e-12  -9.6439880169130228e-12  -7.8904030894128408e-12  -1.8157256936310267e-12  -8.2769442331721021e-13  -9.4750853930936420e-12  -1.0124529580256400e-11  -1.0689938340398762e-11  -6.6008250555497177e-13  -1.7078949501738577e-12  -1.0471415479862187e-12  -1.8169858639866320e-13  -4.9335083416392787e-13  -8.0862970395470132e-13  -7.7034782005498485e-12  -1.0756347012792539e-11  -4.5462187704866930e-12  -3.9720658380420254e-13  -1.3444882559168193e-12  -4.5967195333068599e-12  -9.7738898200371598e-13  -1.8374661899939045e-13  -2.1106320940509813e-13  -8.6455410037740827e-12  -8.7434544445280888e-13  -1.0870321562036772e-11  -1.0897994272457084e-11  -5.7668462151152386e-13  -6.5979494304204223e-12  -8.8806780852918290e-13  -9.9778922635704267e-12  -1.1627835787918180e-12  -8.8243077430118121e-12  -5.7105136304734159e-13  -1.0881939656582420e-11  -1.0620792017891549e-11  -8.4176828339081158e-12  -8.5423464011589844e-12  -8.1496093044905453e-13  -9.3004031144411437e-13  -4.2609812452561687e-12  -2.5292126071336457e-13  -9.8466973113497792e-12  -1.0827485082849661e-11  -8.9120913428147104e-13  -6.4559700803388475e-13  -3.1289653084818295e-12  -1.0469708309825943e-11  -2.3687032824718660e-12  -3.3934853941200201e-13  -7.6664365717912632e-13  -1.8438442910841054e-13  -3.6390534834204743e-13  -3.6270949585332646e-13  -4.3506984328797681e-13  -9.9382650258888631e-13  -1.6995814259281248e-12  -7.4327239088806332e-13  -2.0932684581312966e-13  -1.0101096901942694e-11  -3.3616475981774804e-13  -9.2473186704097254e-12  -9.2602135262562646e-12  -8.8968081048439588e-13  -8.7952455636019059e-12  -8.0413975313399034e-12  -1.7476034974089914e-12  -2.3720704343385818e-12  -3.5739310245406790e-12  -1.3770598496659720e-12  -1.4872545647776042e-12  -2.5687887563252959e-13  -9.8504056031575052e-12  -1.0869487199628690e-11  -9.8428020676014753e-13  -3.2317635647235786e-12  -9.3592014992567944e-12  -2.8825430363708061e-13  -1.9502039446857755e-12  -3.0911166479502524e-12  -2.6030705435359010e-12  -1.0642634739386994e-11  -2.2512525949013978e-13  -3.7090121357572199e-12  -7.7864654821882293e-12  -2.0764534009765597e-13  -9.0150320614351562e-12  -6.2644991924239579e-13  -5.4667860029941146e-13  -9.7469548570010824e-12  -3.1046537549387540e-12  -6.6907173482736980e-12  -7.9555133438222426e-12  -1.9111265954148593e-12  -7.2973734185794418e-12  -1.0731596898805954e-11  -9.7531502157608163e-12  -3.3550654107841602e-13  -2.0300422483738061e-13  -1.0902219491248280e-11  -7.6908531128358732e-12  -9.9177535505980886e-13  -6.5665184079283505e-13  -1.1583799381391928e-12  -6.3646722956763668e-12  -8.5418543818810785e-12  -1.0279498188010313e-11  -7.0889133444708641e-12  -1.0044436128256175e-11  -2.9182723828637444e-12  -8.8257695519107798e-13  -4.9584606482824716e-13  -4.8587378737211022e-13  -1.3589070909789953e-12  -1.0288222069074058e-11  -1.2260074005052436e-12  -9.5760235565890738e-13  -9.8657923961892289e-13  -2.1716403832885735e-12  -1.2924233414958284e-12  -2.0966826698988884e-13  -1.8287127738784072e-13  -7.8527555212016084e-12  -9.9027098497707383e-12  -2.3886902430759673e-12  -1.0522130633556522e-11  -2.1637976584848487e-12  -5.6819681829199341e-12  -2.7908850147031240e-13  -8.4997345511782434e-13  -2.6383838334687374e-12  -2.7689234270766810e-13  -2.9127461832722984e-12  -1.0085094844285151e-11  -5.7911085197576794e-12  -2.2975447796415304e-12  -3.1821928568594480e-12  -8.1859356253735276e-13  -9.4527983254391143e-12  -9.1500504666575778e-12  -9.5619693482430332e-13  -9.6732367601604281e-13  -4.0961096133024494e-12  -7.0907814499201733e-13  -3.8596706379768262e-12  -1.2626873802653017e-12  -1.0126369753649029e-11  -2.0522564882849966e-13  -3.5694785749190557e-12  -4.7224688757469299e-12  -6.9827976020683925e-13  -1.6594901256058594e-12  -1.0778979925707379e-11  -8.5250369276536403e-13  -6.9232144682276224e-12  -9.9342448912879697e-13  -3.0541608345795138e-13  -3.7500523335718370e-13  -8.6168724061062770e-13  -3.7115995985622583e-13  -4.7576857057106377e-12  -1.0901152072070394e-11  -1.0092802051815236e-11  -1.0479193901552412e-11  -1.0809167626254778e-11  -5.9807150415880166e-12  -5.2655347784351848e-13  -5.3443165691437907e-12  -8.3582865088346124e-12  -9.6300319248794641e-12  -1.4537907298666016e-12  -3.1467938502614081e-13  -2.3057669677453630e-13  -1.0149214294566650e-11  -9.8683972661188690e-12  -8.5104187015945127e-12  -4.1741867980096516e-13  -7.8267494977273563e-13  -4.8356183705365902e-12  -8.1524799418924853e-12  -5.9968602860502433e-12  -8.3520771754710746e-12  -7.9851268290139490e-12  -8.1622597697356423e-12  -1.0862484584365661e-11  -8.1541120579236401e-12  -4.4060129194381781e-13  -4.9072518263189954e-13  -5.6720386357993837e-13  -1.9070078191082134e-13  -2.1491094978160762e-13  -2.8401765017758316e-13  -8.7661734849455524e-12  -9.5521372744498932e-12  -1.0132408094268972e-11  -8.2082038731450486e-12  -6.1991710624953119e-12  -8.9845210678805996e-13  -4.2580047434800470e-13  -1.0670492764968066e-11  -7.9221742870095146e-12  -9.6511490124218992e-13  -9.3053333335742147e-12  -1.9979713357085322e-13  -9.6898681104423187e-13  -6.3899174428879668e-13  -1.5885760347627725e-12  -2.8638778818752309e-12  -7.5137407840060536e-12  -2.5123706368426492e-12  -3.1115753520456585e-12  -3.6391572868326511e-12  -1.0622947221792436e-11  -8.0456580394645802e-12  -4.5624023550735032e-12  -7.0594433474404150e-13  -1.8057476623475832e-12  -1.9094573167281490e-13  -4.4559498506217840e-13  -9.8306907865315428e-12  -1.0561881194183124e-11  -8.5126288743624970e-12  -6.8383609409912496e-13  -8.6475447442903245e-12  -3.1286103140373359e-12  -5.3344842630134426e-12  -3.7024588456581048e-12  -1.4445493379949207e-12  -9.7992477767181969e-13  -6.1335166168025504e-12  -5.0276915666801492e-12  -1.0508431232657382e-11  -9.5962981822170692e-12  -9.8656656874880905e-13  -1.0346718909074557e-11  -1.0594072357902778e-11  -1.0754876296717801e-11  -1.0848661092625337e-11  -1.0189110421900335e-11  -6.0343147886393733e-12  -4.5431383505037839e-12  -2.9645772616988843e-13  -8.6347589510658505e-12  -1.0684229175426035e-11  -4.1246536324359004e-13  -5.9017191806247578e-12  -2.9764094473248021e-13  -1.0722697397776562e-11  -1.0427016629112188e-11  -6.7821030377582331e-12  -8.2276192159141609e-12  -6.7145515182848977e-12  -1.0623096934121645e-11  -6.7451028229628339e-13  -8.2811134225969337e-12  -7.9614389672566398e-12  -4.2802245031137178e-13  -2.5893226604985401e-13  -7.7273698612098361e-12  -3.2210618189352808e-13  -2.8804721379139279e-13  -1.0444819500855646e-11  -9.9387597036597517e-13  -2.3214260546068264e-12  -1.7977858034424494e-12  -2.2404975518772886e-12  -9.5951106746124435e-13  -1.0912974969152804e-11  -1.0925246698075344e-11  -9.2358405927146648e-12  -1.2364929647231913e-12  -9.0561630216614673e-13  -1.0044134469793643e-12  -7.1353931616535848e-13  -1.0094571876550961e-11  -1.0394464325635378e-11  -1.0293211265124996e-11  -1.0914973721272227e-11  -1.1193733088938726e-12  -1.0835758483452357e-11  -1.0775026874931916e-11  -8.8921448214787318e-12  -1.4101104877559054e-12  -4.8500051460244386e-13  -4.5535880770910571e-13  -1.0358949691550056e-11  -1.0492959251931423e-11  -1.0814418229657915e-11  -1.0863270584896735e-11  -1.0918913852722734e-11  -3.6314759886350125e-12  -3.1664454622599941e-13  -9.5957259313915875e-12  -9.5017651169871949e-12  -9.7596961168558352e-12  -9.9297813151692416e-12  -9.5444051798010316e-12  -8.8039392804761858e-12  -4.2706704888271328e-12  -6.5867530476971596e-13  -7.8695406974782006e-13  -2.1060747067151237e-13  -5.2305984668537299e-13  -1.0692977651478504e-11  -1.0487332944203610e-11  -9.7581456995824833e-12  -2.9332131462365346e-12  -3.9720719061704508e-13  -3.8173140830399055e-12  -7.1351955765096024e-13  -8.2505917063968426e-12  -6.9178697031471945e-12  -4.4005494509498513e-13  -5.467338