<?xml version="1.0"?>
<VTKFile type="UnstructuredGrid"  version="0.1"  >
<UnstructuredGrid>
<Piece  NumberOfPoints="6486" NumberOfCells="12696">
<Points>
<DataArray  type="Float64"  NumberOfComponents="3"  format="ascii">0 2.5 0  0 0 0  2.5 0 0  2.5 2.5 0  1.25 0 0  2.5 1.25 0  1.25 2.5 0  0 1.25 0  1.25 1.25 0  0 0.625 0  0.625 0 0  0.625 2.5 0  0 1.875 0  2.5 0.625 0  1.875 0 0  2.5 1.875 0  1.875 2.5 0  1.770833333333333 0.7291666666666666 0  0.7291666666666666 1.770833333333333 0  0.9375 0.625 0  1.875 1.5625 0  0.642361111111111 1.163194444444444 0  1.341594827586207 1.883979885057471 0  0.46875 0.46875 0  2.03125 2.03125 0  0.3626104797979798 1.513178661616162 0  1.381740196078431 0.4564950980392157 0  0.9375 2.172619047619047 0  2.172619047619047 0.9375 0  2.096354166666667 0.4036458333333332 0  0.4036458333333333 2.096354166666667 0  1.684027777777778 1.163194444444444 0  0.3418803418803419 0.8693910256410255 0  1.642742622813391 2.162164207604464 0  1.275619849389031 0.8465650753054845 0  0.9136284722222221 1.434461805555556 0  1.732437511238546 0.3406962303960658 0  0.9714402568595876 1.029779313093998 0  1.52281746031746 1.485615079365079 0  2.1875 1.71875 0  1.06819722569879 0.2997236128493951 0  2.136114211309524 1.303478422619048 0  0.3125 0 0  0 0.3125 0  2.5 2.1875 0  2.1875 2.5 0  0.3200021620376328 1.192323085056694 0  0.6738456129277992 0.8304377375553881 0  1.757891808928991 1.861952730357003 0  1.5625 0 0  0.9375 0 0  0.3125 2.5 0  2.1875 0 0  2.5 0.9375 0  0 0.9375 0  0 1.5625 0  0.9375 2.5 0  2.5 0.3125 0  0 2.1875 0  1.5625 2.5 0  2.5 1.5625 0  0.7448220909826522 0.3003573636608841 0  1.027298850574712 1.871151477832512 0  1.331260495098891 2.197262878816185 0  1.207917681892289 1.582765010956622 0  0.4339993447432606 1.801186844743261 0  0.6337298768939392 1.443093039772727 0  2.049851190476191 0.6826636904761904 0  0.6584821428571428 2.219122023809524 0  1.89575676467455 0.9798457973793544 0  1.437570562095628 1.059380588255917 0  1.502090052505845 0.6987070896496241 0  0.2040860661083546 1.705323965099331 0  0.2083333333333333 0.46875 0  0.5070952039991439 0.2211150679997147 0  0.6916302856529919 0.5813591430410241 0  2.265625 1.953125 0  2.2265625 2.2265625 0  1.886424081252096 2.243391360417365 0  1.40625 0.202164758520858 0  0.2269345238095238 0.2269345238095238 0  1.152730869673694 0.5225850378741401 0  1.885631899587912 1.312095130148776 0  1.614808884009367 0.9049784971014416 0  1.890095442220658 0.5126535558463003 0  2.323168682795699 0.46875 0  2.268811725689575 0.2304742875213018 0  0.6002389442105756 1.967426444210576 0  0.1768313172043011 2.03125 0  0.2311882743104251 2.269525712478698 0  2.03125 0.176831317204301 0  2.280262553344767 0.6954945504579233 0  1.979219539285994 1.809922269642997 0  2.336309523809524 1.09375 0  1.09375 2.336309523809524 0  0.9314042474388009 1.662973812215543 0  0.1634067999087722 1.40625 0  2.337090640094896 1.40625 0  1.141616997467638 2.069311773587991 0  0.46875 2.338939559681489 0  1.542440307908715 1.734944797244472 0  1.556713687786879 1.956977865354753 0  0.8264238995344066 1.975424467820646 0  1.466326331454725 1.275271369760862 0  1.655675324257095 0.5444159974393489 0  0.3385416666666666 0.6479255698005697 0  0 0.78125 0  0.5236073939200119 0.984090461540625 0  2.091665741047893 1.519793517904215 0  1.71875 2.5 0  0.5356538886262603 1.623137930505009 0  0 1.09375 0  0.1932884281517095 1.015625 0  0.8569313582417669 1.2198915584249 0  0.8876981284879677 0.8329884081524883 0  1.115618488474214 0.7219586973356271 0  1.186950366204949 1.043465130075318 0  2.057459118787237 1.110823087309335 0  1.830651283878689 2.049810069572418 0  1.689107969301489 1.367247437031697 0  0.4921048768039656 1.298643370653124 0  0.8213975694444444 2.336309523809524 0  2.03125 2.5 0  1.049729400480002 1.283723261332814 0  1.308101375801673 0.6489479469700392 0  2.5 2.34375 0  0.4968777175037714 0.7562964879736076 0  1.40625 2.5 0  1.501347663534097 2.307027627307738 0  1.602813712048603 0.1926218191360736 0  0.8393082906308107 0.463778306132633 0  1.682663349152719 1.598471865581041 0  0.7774174680851571 1.560004941327907 0  1.554204170364662 0.3898593897892066 0  1.842184459051087 0.186443880058197 0  1.358107417651776 1.696381759610015 0  1.18859291992392 1.77598670078022 0  0.1875331222687418 0.7609599743339348 0  1.339536743965101 1.422080365801479 0  0.7788179348750389 0.9955343414928611 0  0.9062978492805438 0.1919636509126373 0  1.256007360640958 0.3160320559396114 0  1.09375 0 0  1.174986727221844 0.1594990293443933 0  2.34375 1.796875 0  2.318026474511116 1.589177949022232 0  2.34375 2.5 0  1.672742954892153 2.332882724550692 0  0.2683637361947215 1.874801596909639 0  2.174770749820102 0.5581009131310781 0  1.443279522965991 0.8870068372898454 0  0.3385416666666667 0.3571428571428572 0  0.78125 0 0  2.060421048269335 2.314363248763811 0  1.088078737088509 0.8967352118723447 0  1.087825368444708 1.454931510884769 0  2.018308232129541 0.8548495425854904 0  1.943987311736842 0.3246298523011434 0  1.71875 0 0  1.85337849796276 1.144833312386208 0  2.3486328125 2.1044921875 0  1.407588788651747 2.042968789119587 0  2.336309523809524 0.865366648092144 0  2.34375 0 0  2.5 0.15625 0  0.15625 2.5 0  0 2.34375 0  0.1638044648294291 1.242263417405867 0  0.356216654757926 1.032569427322806 0  0.3188217956111817 1.355736727000647 0  0.5924956460852111 0.36112522004736 0  0.6594216488965849 0.1603472116132387 0  1.841804599497131 1.72214349266521 0  0.15625 0 0  0 0.15625 0  2.115898634821499 1.894570904464496 0  0.7821877980253907 0.7129993435924866 0  1.003820447087786 0.4516053462784233 0  0.477562948779147 1.138333049293613 0  0.719493678605015 1.305655360135975 0  0.9772457618587566 2.020350128938537 0  0.8764738248887107 1.826219722709673 0  1.254787875123819 2.339010653832026 0  2.343597354852534 1.249982759769001 0  0.78125 2.5 0  0.46875 2.5 0  2.5 1.40625 0  1.09375 2.5 0  2.5 0.78125 0  2.5 1.09375 0  2.03125 0 0  2.5 0.46875 0  1.40625 0 0  0.46875 0 0  0 0.46875 0  0 1.40625 0  0 1.71875 0  0 2.03125 0  2.5 1.71875 0  2.5 2.03125 0  2.005424054645407 1.653223486966518 0  0.1538730573856537 1.559850281736677 0  2.33984375 2.33984375 0  1.166539506212474 1.922878979538754 0  0.3914885633949916 1.65887232812171 0  0.5795503163042564 1.766243562569382 0  0.399533125920212 1.946786875081388 0  0.7866324979014098 2.127719094551316 0  0.3654683023546834 0.1495701132219454 0  0.1527388747131078 0.6116379440619215 0  2.013737577140188 1.391056634712135 0  1.17635437372994 2.213329084238133 0  1.737118141866284 1.010577140843115 0  2.200707118087222 1.164723314085963 0  1.697018908736685 1.993548551451517 0  0.5387621649009668 0.6070503962352419 0  2.032805785855952 0.5330427622570983 0  1.082699501358059 1.667818725183932 0  1.503819781540653 0.5468420196858188 0  2.015409142866072 2.175941657590429 0  1.752057611265444 0.869642097111018 0  0.612251684107783 2.356045720700959 0  1.902817102342857 0.6607642211999982 0  2.159616561739693 0.7867739969338844 0  0.5120038350106624 2.197302352398502 0  1.888200216011548 1.919501662489862 0  1.495909909726654 2.16028358757309 0  0.489139876703609 1.443203008943564 0  0.8819175670410521 0.3301172743913011 0  1.882591144370812 0.8155965192707721 0  1.133979796994841 1.172526771862882 0  2.206217447916667 2.084147135416667 0  2.20361328125 2.36279296875 0  1.395746985657004 1.556054166359645 0  1.704383111516207 1.734750450338683 0  0.9575737847222222 2.36274223823052 0  1.035150984253136 0.1302833343179028 0  1.383966125325753 0.7651479963479179 0  1.64003252158672 0.6824316405528895 0  2.22550785055421 1.487078576356817 0  1.760964431499756 1.48495222505201 0  1.276460980673788 2.004207003584658 0  0.1341477688427096 1.828777507920502 0  1.542261434180652 1.155296658359034 0  1.334627911613854 0.9696897472490321 0  1.30794231473696 1.119420615785191 0  0.7028260459857245 0.4438906910721139 0  1.625757433094055 1.84268057552138 0  0.9818707849053143 1.165603626132254 0  2.0086489901463 1.243134585689553 0  1.934584460420609 2.374094051915812 0  1.798434376789567 2.38671361912528 0  1.206314791201715 1.382064292497919 0  0.6333752893366955 0.7023738550008095 0  0.7796219811205605 1.42573253164258 0  1.564399711917382 1.026040828857629 0  0.3385416666666666 0.4889012896825397 0  0.1041666666666667 0.390625 0  0.989112246382566 1.543537365516289 0  2.025724425454636 0.9846960595520872 0  0.6602885475034063 2.086117390485779 0  1.607130551925032 1.267198646640915 0  0.1317864544877056 0.8896173683400176 0  1.755387840017567 2.230364320056445 0  1.301540702984401 0.1216289692748247 0  1.433170657577442 0.3331052752740999 0  1.500459610550388 0.113513924782439 0  0.6494291520606965 1.029586599619295 0  1.010146149868299 0.794897284196169 0  0.3700844198238017 2.235390157870766 0  0.3360891767780704 2.36656279435396 0  1.876856241037701 1.437150669863757 0  1.778674102957329 1.245979347269706 0  0.5472829890977179 0.1005517127039925 0  0.4669074189005698 0.3416784232954367 0  1.472765289289269 1.850899166481903 0  1.555853593327178 1.608452097912802 0  0.6708955559113426 1.646561631116984 0  0.8164699620322933 0.5924479455478063 0  0.3167738989468366 1.758696809749795 0  0.2788007305565096 1.605499483471246 0  0.7821720982350511 0.181524936294752 0  1.376812251214195 2.313340247908297 0  1.785652202614777 0.5962261755537186 0  1.761467296310972 0.4679567244718574 0  2.2265625 1.8359375 0  2.3828125 1.9140625 0  0.5279531607054191 2.071552361614785 0  2.397573269551114 0.234375 0  2.383578172599618 0.3589298466020009 0  0.1024267304488855 2.265625 0  0.1164218274003825 2.141070153397999 0  0.2696857594953064 2.135405441512016 0  2.164961300137334 0.1375322943529536 0  2.137757548369486 0.2724194778647587 0  2.238873711826398 0.3626419179496562 0  0.1001414910226386 0.234375 0  0.2176339285714286 0.3478422619047619 0  0.2503620791333544 0.1061694061057066 0  2.336445461915368 0.1250451055247424 0  0.2154004640409726 2.3918124
[...]
<PointData  Scalars="f_16-2"> 
<DataArray  type="Float64"  Name="f_16-2"  format="ascii">-7.1890768819033422e-53  5.2439725043577663e-24  1.2565499322161326e-61  -1.4379142497311886e-62  1.9101284721376663e-37  -2.3589209041279088e-54  -8.5046495707212974e-52  -1.0224828609507971e-29  -1.0939984989843393e-33  -3.6037793645003918e-20  3.9963360828303318e-27  -1.0666557498465944e-51  -3.8302348745771080e-41  -3.2709632334744330e-58  2.8266163480453996e-49  -3.9381184908904590e-57  -4.5582793363086296e-56  -4.5561163694888374e-41  -1.8058801869277649e-37  -1.9260694294582115e-25  -5.6017556597659640e-45  -2.4448709343587103e-27  -2.0441300543884459e-42  -8.5016328342497529e-19  -1.0401137589924394e-51  -3.3349250424705741e-33  -8.4498228923252498e-35  -3.8270890722832629e-45  -2.5679347403944928e-48  1.4324751020009823e-51  -4.5588424840292593e-45  -1.7175446464012344e-39  -3.7446900540061434e-22  -3.9729156632108687e-49  -2.3829048416512966e-31  -9.1156231457148588e-33  1.7892375099287097e-45  -2.9361273500895023e-28  -2.3962122694271570e-39  -4.9727654446354585e-51  -1.8261218765179136e-30  -8.6773021291312207e-48  -4.3805443050583005e-23  -1.4253785527764417e-18  -1.6430553256987618e-59  -2.3207509504789441e-59  -2.4776382158299001e-27  -2.6201455485314537e-23  -1.4062114463465672e-46  2.1576874917044197e-43  7.8908517826785803e-32  -1.3175779790637362e-53  1.3340073961023255e-55  -2.5010668405390897e-55  -9.7309700749412339e-25  -4.6571388069604081e-35  -1.7915192603995309e-51  1.7437708106514899e-61  -4.3188672673082748e-47  -1.3842390882153986e-53  -3.2250038092721115e-55  -8.7321739790686659e-24  -3.1792503005978104e-40  -2.2990720398243823e-47  -3.2984795006377803e-37  -1.8696283391155068e-38  -1.4305921053625200e-31  -1.7930778429220307e-47  -2.4505358701729690e-46  -7.7757357779754373e-43  -1.0146163672176782e-34  -1.4584575821705333e-35  -7.5041370128132910e-38  -3.9499896442000530e-17  -1.3768989920634075e-20  -1.0489441804682321e-21  -3.7224303617701156e-54  -1.9015788007073190e-56  -8.1831738710805566e-53  -2.8809211958021579e-41  -1.9257094886124797e-17  -9.0191607287454716e-30  -1.3446152134801105e-43  -1.4985106090908474e-37  -3.3162202242867900e-46  3.7919116081327036e-56  -2.1042286343715935e-58  -3.0709986578853081e-41  -3.5646309639945885e-44  -1.5961798649178708e-49  1.8033890648294615e-52  -1.8369508750105018e-52  -9.6614125941896744e-49  -2.2101689520670934e-51  -1.5660013482366907e-48  -1.9716283239744477e-36  -1.9655303232071759e-32  -9.1796010794104939e-52  -3.6489666710017818e-44  -3.3683964236769363e-49  -1.6792099040984815e-42  -1.4560914883285674e-45  -1.8960970302757578e-41  -1.0636696092470423e-36  -6.8179258619761017e-40  -3.4829889027909941e-19  -2.5137968139099670e-22  -2.8866644761433793e-24  -2.9627050559424025e-48  -1.2193266713514576e-54  -8.7894846212086851e-35  -2.8312722351345037e-27  -6.1493485057138244e-25  -1.8932527562277157e-29  -1.2183949055410605e-25  -1.9540535715322045e-28  -3.8056554493998329e-31  -4.5230126924700099e-46  -1.1014266437301401e-49  -8.8391581060987712e-41  -6.6489084053611705e-29  -2.0031882083371792e-48  -1.1543995862651582e-57  -4.5040060079828369e-32  -4.2840256574006973e-32  -4.7104880005976722e-61  -3.9021282837908448e-21  -1.2830151564025148e-52  -3.2603274073611833e-50  1.7817523539784461e-43  -3.8645172934523064e-24  -1.2429463188898197e-42  -4.0501904426527364e-34  -1.4611631266172089e-39  1.1694942542839495e-48  -4.2500420340641846e-40  -1.0504493114969469e-39  -7.5014599813908516e-21  -1.6347333094475300e-36  -6.4242733242658197e-26  -3.5382398183614412e-29  -6.3926664173004416e-34  1.3076885006478156e-34  1.2627181966658035e-34  -4.4998663727285182e-54  -2.0475123195470401e-52  -5.2433075594475982e-61  -6.8554469898510418e-52  -5.8919072042408016e-41  -2.0550796297496816e-52  -2.1854224235800072e-34  -2.4309285311053198e-17  2.6196918575837250e-29  -1.0799258271563989e-55  -9.7500985727376083e-29  -1.8565760240501888e-34  -1.4938976774178044e-45  4.5579610387930335e-49  2.9939972075564073e-46  -1.9221525884955944e-42  -9.3312572586378872e-57  -1.7157213105271266e-45  -3.5693265528389080e-52  1.7890322621748646e-58  3.5414141912547459e-62  -4.6206583677503662e-53  -3.0438150662191388e-50  -2.0625050677820664e-29  -1.1403473744133243e-24  -2.5692133267112787e-30  -1.0227483808371612e-20  -2.4911478583601068e-25  -4.7180324891167050e-46  9.4733793688849559e-24  1.1184130058747551e-20  -1.3168611720523276e-51  -1.3294991886205692e-23  -2.9766846040526653e-27  -2.6516801946757086e-26  -7.8059518895731598e-30  -1.7393600064543027e-42  -7.4594548622758061e-39  -3.2419006942192226e-49  -1.3696730504985161e-51  -1.1980745313335057e-51  -1.7536242848899611e-52  -1.5346152941473901e-54  -2.0018827016929667e-51  -1.5410853300854300e-56  -1.5126267222837305e-54  2.5990804023193573e-52  1.9568135240241925e-60  1.2145503610170680e-40  2.0265344975283433e-25  -1.3165211423222409e-18  -3.0004553010954449e-32  -4.5261719072606991e-38  -5.8779263265766136e-44  -4.4970371156160241e-56  -3.2940715583152865e-58  -9.8341843568594581e-48  -2.9386954176278692e-35  -4.9463962191235022e-59  -6.2671454879836704e-42  -8.8139827299337737e-36  -1.9068579653844899e-37  -9.9159956199534273e-42  -2.7944425981698725e-44  -3.4370820243643278e-20  -5.5688671339546099e-19  -3.8161911934584905e-46  -1.2563109023331478e-46  -6.2535805496330273e-40  -8.2999424319447833e-49  -2.1113539408126240e-47  -3.5315383995102699e-20  -7.5114412190024474e-49  -2.4788903915020402e-37  -1.0433204579110458e-36  -2.3915656411962547e-53  -5.6485180971102083e-40  -3.8573996275699192e-49  -2.8726348791548916e-44  -3.2979761870892019e-49  -3.4247713140417111e-46  -7.9093047430843691e-49  -6.8324889014538252e-48  -2.1214695319043001e-31  -6.7935690194774165e-26  -4.8104200668998753e-43  -1.5378298347710777e-31  -1.1467001665173460e-54  -4.9656078048808622e-58  -9.4851571628937596e-39  -1.5938121947485197e-44  -6.9590185884226048e-49  3.3798087306367454e-32  -2.9559488002942164e-33  -1.3892359494189427e-38  -3.2674291915856344e-50  -1.1159635795933252e-42  -8.1918723960768931e-44  -4.6791451803860203e-40  -4.4921704925739449e-37  -8.2589101399686263e-33  -1.9380813986386840e-33  -5.4098747048831376e-22  -1.0136455634229182e-44  -7.1965180166566890e-30  -2.5521278832570359e-45  -4.5718289999201896e-55  -6.7664863720322180e-54  -1.2613365355776735e-34  -9.3853273291763597e-22  -6.0690654132150754e-32  -9.7545428351932918e-37  -1.0680618938231507e-17  -5.6625213099710272e-17  -6.9631343586431784e-35  -2.4540968319135967e-45  -1.0582206275672771e-43  -9.5912057491769286e-39  -2.0607968439016411e-23  -3.7311155164088376e-51  4.4680442453237103e-38  -1.6499825682893147e-37  5.2181438967520593e-42  -1.6213771608588572e-25  -3.3707004872009962e-27  -1.0107775960480632e-47  -4.6973039965324640e-51  -3.6848516158595905e-44  -1.6273382143294184e-41  -1.9438986336124661e-26  -7.3284666535309543e-19  -2.6612387663137489e-43  -2.9992080403536156e-41  -2.8721881819684326e-35  -1.4522406723501802e-23  -2.0562582385306524e-38  -1.6288072595595206e-35  -1.6206637205753611e-26  -1.2428119662423305e-49  -1.6000527499302087e-42  -2.1074815235016169e-43  -1.8852353606457829e-52  -1.3346006532884021e-55  -1.6103230320641185e-43  2.8154973554276177e-60  1.5956076561074758e-58  -1.5914623966899337e-48  -3.4282562912598192e-46  -6.8084922702562408e-46  3.7851734755007706e-55  8.8811550206551390e-54  2.1380570785386843e-55  -2.3528408748423995e-17  -1.5532709957203448e-16  -7.2612368411085278e-21  9.6852464049046790e-59  -3.0606986508913456e-51  -2.9673006750688574e-46  -6.8996701235581676e-21  1.8318460860351201e-45  -1.1316472046593318e-27  -1.0730569445836223e-30  -3.1820603054075297e-32  -3.7100072047562125e-43  -6.5951554835863810e-41  -1.5417179676981987e-27  -2.1732110235218826e-42  1.4401420039037420e-50  -3.4033172064296354e-56  -2.9512301048430748e-54  -1.9054062395308198e-58  -2.8344672915129525e-20  -6.5734489695122979e-40  -4.8967162924484419e-40  -3.9759548465658546e-36  -3.8441711403165805e-50  -1.9732855386264344e-38  5.5274774679116541e-47  -1.8579019071552588e-22  -3.5434345321359419e-36  -2.2256998770644833e-38  -3.3200254473270250e-50  1.4216913976562754e-29  -4.1979373681049435e-49  -1.0143610853493600e-45  -6.2853548523152413e-27  -9.7859683626331872e-53  -6.1174988319256442e-21  -7.6042374905923969e-29  -1.6612988108475443e-49  -3.6110134890377029e-50  3.0596492589764936e-49  -3.2757450247577951e-50  -1.1692319043537943e-32  -4.5374976737669958e-31  -1.4134033181901645e-53  -6.3856240945012707e-50  -1.4809003888295310e-27  8.4818943397832069e-45  -2.3626776423962759e-38  -1.5216801589830702e-51  8.2660444755416770e-48  -2.4398923979783796e-54  -2.0236826433419542e-47  -2.9062572601515349e-35  -7.0581503868025332e-50  -3.2026847923386985e-31  -1.5344984110331581e-20  -7.3214297180629935e-19  -3.4167233640550931e-18  -2.1536457702799113e-41  -1.5099802054609868e-36  -1.5721162461107202e-28  -4.5080481102607362e-53  -7.3662815420230054e-53  -5.3118525102352460e-51  -2.4223561287705315e-51  -6.3091614253290003e-61  -1.6842640152713443e-46  -2.8184146203655984e-48  -3.7270868109732434e-34  -1.3300375233093081e-57  8.9285535345155541e-41  -3.3636994702256692e-49  -3.5392813160662770e-43  -1.0331638899555902e-40  -2.2474449665537756e-35  -1.2148460512298030e-33  -1.2190474374560415e-18  -1.3031753764716397e-54  -1.0694608649480022e-40  -6.3380453508165353e-30  -1.8359612151840019e-30  -4.0556060578137146e-52  -6.4180089936700339e-24  -4.1407253564068425e-25  -2.2685734624028878e-24  -2.5572870639466252e-27  -2.1830719550227119e-45  -1.0499503180421890e-30  -5.5312037061309140e-39  -5.1560585208015415e-36  -4.8418416513661429e-42  -2.2401882375519221e-44  -1.8921206620367117e-50  -3.8360510272996106e-34  -1.5472792561165111e-32  -6.5465355093226071e-22  -3.3650095601215827e-46  -5.9468074687064820e-23  -2.5543342194253060e-26  -3.6637554920706510e-53  -1.0601884513772721e-37  6.3480211862132974e-43  -1.0149702041031517e-52  -7.7988675877936728e-33  -4.3875038533058161e-18  -2.4070312976438274e-25  -4.4227986614723497e-44  -4.4158184535858889e-47  -2.3320948580724985e-37  -4.3442668623021645e-47  -7.0221865848172250e-52  -1.7570910711763380e-33  -2.0087729894293922e-22  5.5377294320224142e-60  -6.7564882098074301e-30  -1.3094205678392949e-30  -1.4164326611872808e-29  2.1475292293593810e-53  -1.5359610359837956e-36  -2.2260632286647960e-33  -1.7862467003264169e-42  -6.5919679732438128e-20  -6.4953201341493902e-26  -3.3806734159776985e-52  -6.3092348800179180e-33  -5.0103648407293957e-44  -1.6941810747428628e-47  -1.4311834413389213e-49  -3.6772654619948225e-30  -1.0760183038358089e-27  -3.6259954469548289e-39  -2.3059732091365385e-44  -5.8198549859944626e-48  -2.4076304364030042e-50  3.2908248108944087e-28  -7.9425715870894856e-36  -4.3739381373117657e-50  -8.9408754182730305e-48  1.8348874965385794e-51  9.4983619278321062e-36  -6.3809041441795786e-42  4.1310033347299694e-40  -2.1359585207185522e-46  1.7865356288876950e-27  -7.7874358734225981e-54  -3.2597528697193418e-38  -5.0698439431440193e-29  1.2048318701837276e-46  -1.3846451713108442e-59  -1.5301619380675138e-24  -8.6190871198011983e-43  -6.7080408531658249e-34  -9.5995223217402065e-29  6.2183969162506763e-57  -2.5580464681118772e-38  -6.6656550262594679e-27  -1.4421342615964662e-48  -6.5750160147806876e-56  -4.9219249173153144e-50  -1.2268987319421146e-51  -1.0508282798927735e-26  -1.5810338771320330e-20  -1.3877355841893191e-33  -3.3142959610330442e-22  -1.1874185807360055e-41  -7.6794495395182855e-38  -3.7011057560187515e-29  6.4908443399094316e-54  3.5787596347362257e-53  -3.1634447094825927e-30  -5.0712848612350240e-47  -1.4344469384829869e-23  -9.9058372665675085e-39  -2.3542183101923338e-19  1.8882935921868037e-50  -1.5458900996793179e-23  -7.6917723970012084e-25  3.1373541613471686e-34  -5.9512482237856325e-35  2.1031444965197526e-37  -1.0926500614273347e-40  -1.9066584645352260e-41  -1.5786160633749026e-38  -7.7250235848209143e-22  -1.3122508996057342e-53  -2.7670776792686192e-54  -2.3841586980350975e-56  -7.3374468474155601e-48  -1.9317617052472384e-27  -3.9958406061847514e-54  -1.0599234749036695e-22  -3.9436674717865724e-33  -2.0286317702258893e-28  -7.5976274969565114e-45  -6.7766448567282326e-33  -1.2259482152169676e-37  -3.8833930938463215e-49  -7.3835445667091168e-36  -3.9372705968628016e-56  -5.1898077560431655e-52  -1.3211517719281301e-43  -2.7905793377209397e-51  -1.1757616723440370e-41  -3.0016149454497027e-53  -1.0479157907861451e-46  -5.4904899279664464e-38  -4.1574916441798774e-32  7.4961737215157881e-25  3.1495606830789474e-59  1.0095888782321761e-57  -1.0306010356805480e-49  4.4085211740448927e-31  -8.6093975110202367e-40  -1.8438890134897375e-39  -3.3376283340681536e-41  -2.7490726958304421e-56  -7.3073763783349244e-28  -5.7623714203232230e-46  -1.4686206967412009e-26  -6.7608713958071067e-25  -1.4525731502294278e-44  -1.2895258446742804e-39  -4.0557512899296782e-42  -3.4781675598200233e-51  -1.4268456280148801e-50  9.4517628209500872e-35  -4.0853258648749613e-26  -4.0967018528020682e-34  -3.4117272307874502e-52  -6.4277798861044468e-46  -9.2015732625213596e-40  -1.2305819355310744e-40  -1.6994805729107938e-41  -3.7410193076848315e-46  -3.4545042210928034e-44  -6.7969251344027128e-51  -1.0686576949230439e-49  8.6317833302452227e-37  -4.6338261174319587e-57  -1.2117920229208887e-46  -2.9738953534581068e-47  -4.0728900877779262e-44  -1.0330367513527914e-55  -4.4823114064516886e-54  -6.3345913214315818e-55  1.0722202730431125e-61  -2.1451877271924133e-45  2.2888460688118767e-51  -7.6125564010836046e-26  -6.8713988313929032e-26  -3.8188017294403259e-38  -1.7973212226954699e-50  -1.9106550957640955e-53  -5.1685900477505218e-40  -3.1186082998720601e-58  -3.8613713072158428e-56  -9.4057755852490786e-33  -3.2192974006041710e-34  2.8666436102378522e-57  -1.6917076606098554e-47  -1.7942842296033150e-37  -4.9037970175258643e-26  -1.3998326098621816e-47  -1.3388307905643080e-47  8.6160305642082652e-57  -4.3040640716205233e-17  -5.6689979687408979e-17  -4.8848671657058353e-18  -1.6413880641659663e-40  1.3092977685467493e-60  -2.1476366582681016e-43  -1.3979740163592608e-23  -6.0341120519578694e-56  -7.0182653499627642e-50  1.7716843456883865e-41  -1.7724279145947517e-40  -6.9031785076641135e-47  -9.0216572268808758e-60  -5.8072623024976088e-40  -1.1634726769765874e-52  -2.5907107520320918e-57  -1.4527410531858494e-21  -6.0052848538786205e-33  -2.0872908026177682e-39  -6.2251297379123380e-50  -6.8677105059996855e-54  -1.0140729883048521e-37  -3.8440400704593311e-46  2.9946080631036204e-23  -6.4785807402716090e-37  -1.1326289398437454e-57  -8.3007673036205873e-35  -4.2550240200654468e-24  -2.7551138462338366e-30  -9.9625503924221404e-44  -1.0708773465591779e-28  -2.4237252822571098e-32  -7.3075675355131953e-29  -3.0277421884285278e-50  -1.6658019788013422e-42  -2.2634797435256912e-18  -5.4005929827744568e-31  -3.9274993618336359e-22  1.7156986512041752e-27  -1.5253671317950579e-23  -1.3040148641407849e-19  -1.6801899687976772e-20  -5.2874337107837481e-53  -9.6682185093961807e-55  -5.4158350216124807e-36  -6.9505987109545761e-34  -1.6110474410666963e-33  -1.1230978764344357e-31  -1.9796821446223004e-16  -7.9332789943479289e-46  -9.9882045098849404e-51  4.6664946479176522e-33  -8.2701237530530040e-53  1.2098517484034450e-54  -1.9463387331646483e-55  -8.1634615600769308e-44  -8.9605580611890351e-55  -2.0408357082718006e-28  -4.0814603057312083e-50  -1.1623919308144586e-34  -2.0124120598383017e-48  -5.1251773387924410e-49  3.3884419110990004e-24  2.8362483073076489e-22  -7.7525455437906990e-52  4.2752344935663800e-39  -9.7600342051007887e-58  -3.9495120688897776e-18  -1.5386453119322187e-45  1.6418187374792014e-59  -1.9808929514055476e-22  -7.1597617222648430e-23  -5.1744172678049130e-39  -6.6512369666083389e-48  -2.3991113949610813e-35  -3.3417176276251877e-29  -1.1986355365705867e-56  -2.8784023436955087e-22  4.8921483419281059e-56  1.3782429469721385e-50  -7.1005382668617024e-31  -1.6712386968313968e-47  -2.2696311060737846e-18  -3.4671052702541528e-37  -9.5984213834460292e-45  -8.9396759547014780e-43  -1.2846028038092369e-39  -1.2899182431036505e-51  2.9023179762172604e-46  -1.1052031635902104e-40  -7.2052229319285889e-31  -9.8086682408067909e-42  -1.2061498943954571e-45  -1.2499040801079995e-51  -4.2734378664894699e-53  -8.6452632015419715e-46  -9.8766555190923185e-30  -1.7061238101811450e-51  -5.3691085611716582e-54  4.0687354110047458e-36  -2.2954571356217633e-60  -1.8840608034796386e-51  -2.0521981256768278e-58  -1.2377623626370835e-51  -6.5315540553301807e-53  -2.7250162143171214e-52  -1.8007855838129162e-36  -1.2001471257094288e-51  -1.6794985383588432e-55  6.4227049498013079e-48  7.0959003662455980e-45  -2.1436589904332307e-54  -1.6749514700332628e-54  -8.7766614768277778e-55  -5.4892139119455780e-26  -1.6912877987925087e-28  -6.2084766214248760e-31  -1.4648155766156653e-51  -4.1893074852199130e-21  7.9714884744319411e-31  1.0272350079759883e-50  -1.6405694032648680e-42  -4.1136804584799535e-53  5.9241578348797986e-25  -1.1929503840680162e-48  2.7602018529842190e-62  6.0626814770555084e-26  6.4839954494559977e-42  -1.6066289843852242e-19  -2.8252698877879651e-18  -2.1512986384208213e-55  -2.8528805733105141e-60  -8.3881068553294966e-62  -5.8177458890003036e-62  -9.6449319848037118e-34  -3.1218078446569468e-53  -2.6260835008455487e-19  -1.5922536173733001e-56  -9.5604462835167897e-59  1.1370000327793003e-60  -5.4118006068968386e-44  -7.0915425304499102e-47  -3.4149363377074526e-36  -4.0721510961108672e-50  -1.5511557168636037e-35  -1.5416319426047849e-50  -1.1062893418873884e-20  -1.0568854497037872e-20  -2.5873294831044514e-19  -2.2614696180519044e-52  -1.6027137229055533e-23  -2.6386656301077583e-25  -2.3545363594276121e-19  -2.1608317838017891e-43  -1.9313379447258001e-29  -3.6719253025711142e-28  -1.0163669875259257e-43  -9.9997631701490555e-34  -5.2104241449929506e-35  -2.7967809618759040e-36  -5.4679449690762989e-31  -6.8786666775252465e-20  -5.6852360232095102e-18  -8.1367165020611004e-50  -1.6537741897643554e-44  -2.5022445056111086e-41  -2.2984582157646771e-48  -2.6716062064160851e-22  -3.0638335626661049e-53  -1.4416215752944963e-34  -2.2776957414905366e-43  -1.1868007738677062e-30  -2.4097083559535039e-23  -8.5341851566721402e-38  -6.9616808480848322e-42  -7.0393562170284903e-36  -2.1601492732519229e-26  -8.4235248729468459e-29  6.1636411231055577e-48  -6.3645037103463194e-51  -2.5258619996516879e-23  -1.6494833261907989e-48  -8.8727494769915989e-51  -5.5501671852735314e-33  -3.1242263676538146e-39  -1.8112124327822388e-24  -2.4715281952776362e-41  -3.3634263034071339e-21  -1.4647870350578067e-51  -8.8206267675750669e-36  -9.5743774433205703e-37  -4.8953940525345989e-48  -1.0805863920550378e-44  -6.4807956416125580e-45  -1.9447886266794557e-47  -2.3902230303917464e-46  -7.9966045402650242e-45  -2.2819100703822268e-32  -2.5568175611606111e-44  -5.4062685579228355e-38  -6.6342615781098790e-32  -5.1055760727947851e-40  -2.2636482926246157e-41  -1.2589149796078014e-50  -1.6539906429939601e-35  -1.4145494140364752e-42  -4.1890757325718719e-44  -1.2539154573408408e-44  -5.8103984055965967e-43  -1.0138115439942702e-34  -6.3195965338144038e-35  -5.1580266512485819e-37  -5.7408389782546210e-30  2.9887623229955117e-53  -3.0845198235680015e-47  -7.1948520866055481e-48  -2.5520899489690094e-46  -2.8186145662535761e-46  -1.0954579302550596e-47  -5.3728041241369069e-51  -1.1642833819470000e-39  2.5672295221777811e-39  -6.3022336391441637e-51  -5.8273399728355262e-54  -4.4151865256250893e-49  -6.6536390720934687e-38  -1.0694678182822697e-31  -2.8785522451402825e-28  -1.8685275731024818e-39  5.5197936312332438e-52  -1.5076517379612716e-24  2.3672725155075912e-38  -1.8102108373957359e-52  -2.1361316309115934e-21  1.0145032024396940e-48  -8.5675729079266703e-53  -6.9832128495850160e-53  -1.2143141513282656e-56  -9.9665480955641237e-49  -3.2036863