<?xml version="1.0"?>
<VTKFile type="UnstructuredGrid"  version="0.1"  >
<UnstructuredGrid>
<Piece  NumberOfPoints="6454" NumberOfCells="12638">
<Points>
<DataArray  type="Float64"  NumberOfComponents="3"  format="ascii">0 1.5 0  0 0 0  1.5 0 0  1.5 1.5 0  0.75 0 0  1.5 0.75 0  0.75 1.5 0  0 0.75 0  0.75 0.75 0  0 0.375 0  0.375 0 0  0.375 1.5 0  0 1.125 0  1.5 0.375 0  1.125 0 0  1.5 1.125 0  1.125 1.5 0  1.0625 0.4375 0  0.4375 1.0625 0  0.5625 0.375 0  1.125 0.9375 0  0.3854166666666667 0.6979166666666666 0  0.8049568965517241 1.130387931034483 0  0.28125 0.28125 0  1.21875 1.21875 0  0.2175662878787879 0.9079071969696969 0  0.5625 1.303571428571429 0  0.8290441176470589 0.2738970588235294 0  1.303571428571429 0.5625 0  1.2578125 0.2421875 0  0.2421875 1.2578125 0  1.010416666666667 0.6979166666666666 0  0.2051282051282051 0.5216346153846153 0  0.9856455736880344 1.297298524562678 0  0.7653719096334186 0.5079390451832908 0  0.5481770833333334 0.8606770833333333 0  1.039462506743128 0.2044177382376396 0  0.5828641541157527 0.6178675878563986 0  0.9136904761904763 0.8913690476190476 0  1.3125 1.03125 0  0.6409183354192741 0.1798341677096371 0  1.281668526785714 0.7820870535714286 0  0.1875 0 0  0 0.1875 0  1.5 1.3125 0  1.3125 1.5 0  0.1920012972225798 0.7153938510340165 0  0.4043073677566794 0.4982626425332328 0  1.054735085357395 1.117171638214202 0  0.9375 0 0  0.5625 0 0  0.1875 1.5 0  1.3125 0 0  1.5 0.5625 0  0 0.5625 0  0 0.9375 0  0.5625 1.5 0  1.5 0.1875 0  0 1.3125 0  0.9375 1.5 0  1.5 0.9375 0  0.4468932545895913 0.1802144181965304 0  0.7987562970593343 1.318357727289711 0  0.6320399113235965 1.037924776639822 0  0.2603996068459564 1.080712106845956 0  0.3802379261363636 0.8658558238636362 0  0.3950892857142857 1.331473214285714 0  1.229910714285714 0.4095982142857143 0  1.13745405880473 0.5879074784276126 0  0.7482946595664349 0.917427298948138 0  0.8625423372573767 0.63562835295355 0  0.9012540315035069 0.4192242537897745 0  0.6862861647268528 1.220560482834343 0  0.1224516396650128 1.023194379059598 0  0.125 0.28125 0  0.3042571223994863 0.1326690407998288 0  0.4149781713917952 0.3488154858246145 0  1.359375 1.171875 0  1.3359375 1.3359375 0  1.131854448751258 1.346034816250419 0  0.84375 0.1212988551125148 0  0.1361607142857143 0.1361607142857143 0  0.691638521804216 0.3135510227244841 0  1.131379139752747 0.7872570780892659 0  0.9688853304056201 0.5429870982608649 0  1.134057265332395 0.3075921335077801 0  0.1060987903225806 1.21875 0  0.1387129645862553 1.361715427487219 0  1.393901209677419 0.28125 0  1.361287035413745 0.1382845725127811 0  1.21875 0.1060987903225807 0  0.3601433665263453 1.180455866526345 0  0.5483798738512705 1.157949853770241 0  1.36815753200686 0.4172967302747542 0  1.187531723571597 1.085953361785798 0  1.401785714285714 0.65625 0  0.65625 1.401785714285714 0  0.09804407994526333 0.84375 0  1.402254384056937 0.84375 0  0.28125 1.403363735808893 0  0.925464184745229 1.040966878346683 0  0.9340282126721275 1.174186719212852 0  0.8797957988728348 0.7651628218565172 0  0.9934051945542568 0.3266495984636094 0  0.203125 0.3887553418803418 0  0.3141644363520071 0.590454276924375 0  0 0.46875 0  1.254999444628736 0.9118761107425289 0  1.03125 1.5 0  0.3213923331757561 0.9738827583030052 0  0 0.65625 0  0.1159730568910257 0.609375 0  0.5141588149450601 0.7319349350549398 0  0.5326188770927806 0.499793044891493 0  0.6693710930845284 0.4331752184013763 0  0.7121702197229691 0.6260790780451906 0  1.234475471272342 0.6664938523856012 0  1.098390770327214 1.229886041743451 0  1.013464781580893 0.8203484622190179 0  0.2952629260823795 0.7791860223918741 0  0.4928385416666666 1.401785714285714 0  1.21875 1.5 0  0.6298376402880013 0.7702339567996885 0  0.7848608254810038 0.3893687681820236 0  1.5 1.40625 0  0.4622923140598757 1.236370233688302 0  0.4667991207677928 0.9473088592382519 0  0.2981266305022628 0.4537778927841646 0  0.84375 1.5 0  0.9008085981204581 1.384216576384643 0  0.9616882272291621 0.1155730914816442 0  0.5035849743784865 0.2782669836795798 0  1.009598009491631 0.9590831193486247 0  1.105310675430652 0.1118663280349183 0  0.9288474621627256 0.2227857609567891 0  0.7464170347051563 1.031945227193052 0  0.1125198733612451 0.4565759846003609 0  0.841690222029119 0.9722978654718903 0  0.4672907609250232 0.5973206048957169 0  0.5437787095683263 0.1151781905475824 0  0.7536044163845748 0.1896192335637668 0  0.65625 0 0  0.7049920363331066 0.09569941760663599 0  1.40625 1.078125 0  1.39081588470667 0.9535067694133395 0  1.40625 1.5 0  0.6375104178177308 0.9268732242701165 0  1.003645772935292 1.399729634730415 0  0.1610182417168329 1.124880958145783 0  1.304862449892061 0.3348605478786471 0  0.8685031591756179 0.5174815394805063 0  0.203125 0.2142857142857143 0  0.46875 0 0  1.236252628961601 1.388617949258287 0  0.6528472422531054 0.5380411271234069 0  0.8059365139027533 0.8342920789922936 0  1.210984939277725 0.5129097255512943 0  1.166392387042105 0.1947779113806861 0  1.03125 0 0  1.112027098777656 0.6868999874317245 0  1.4091796875 1.2626953125 0  0.7056210334910562 1.122831931927321 0  0.8445532731910484 1.225781273471752 0  1.401785714285714 0.5192199888552865 0  0.5315992325579575 1.02511262900491 0  1.40625 0 0  1.5 0.09375 0  0.09375 1.5 0  0 1.40625 0  0.09828267889765753 0.7453580504435201 0  0.2137299928547555 0.6195416563936835 0  0.191293077366709 0.8134420362003882 0  0.395652989337951 0.09620832696794322 0  0.3786395303236629 0.2546156254865724 0  1.105082759698279 1.033286095599126 0  0.09375 0 0  0 0.09375 0  1.269539180892899 1.136742542678697 0  0.4693126788152344 0.427799606155492 0  0.6022922682526717 0.2709632077670539 0  0.286537769267488 0.682999829576168 0  0.431696207163009 0.7833932160815852 0  0.6864071374811688 0.8459705255349474 0  0.7528727250742914 1.403406392299215 0  1.40615841291152 0.7499896558614008 0  0.46875 1.5 0  0.28125 1.5 0  1.5 0.84375 0  0.65625 1.5 0  1.5 0.46875 0  1.5 0.65625 0  1.21875 0 0  1.5 0.28125 0  0.84375 0 0  0.28125 0 0  0 0.28125 0  0 0.84375 0  0 1.03125 0  0 1.21875 0  1.5 1.03125 0  1.5 1.21875 0  1.203254432787244 0.991934092179911 0  0.7018429057870754 1.316240552056942 0  0.09232383443139219 0.9359101690420062 0  1.40390625 1.40390625 0  0.2348931380369949 0.995323396873026 0  0.3477301897825538 1.059746137541629 0  0.2397198755521273 1.168072125048833 0  0.21928098141281 0.08974206793316726 0  0.09164332482786468 0.3669827664371529 0  0.4604861261832766 1.147925083553434 0  1.208242546284113 0.8346339808272811 0  1.042270885119771 0.6063462845058686 0  1.320424270852333 0.6988339884515781 0  1.018211345242011 1.19612913087091 0  0.3232572989405801 0.3642302377411452 0  1.219683471513571 0.319825657354259 0  0.9022918689243919 0.3281052118114913 0  1.209245485719643 1.305564994554257 0  1.051234566759267 0.5217852582666107 0  0.3673510104646698 1.413627432420576 0  1.295769937043816 0.4720643981603306 0  0.3072023010063974 1.318381411439101 0  1.141690261405714 0.3964585327199988 0  1.132920129606929 1.151700997493917 0  0.4797323103182937 1.318677829548113 0  0.8975459458359925 1.296170152543854 0  0.464209749529605 0.8633392490855897 0  0.2934839260221656 0.8659218053661386 0  0.5291505402246311 0.1980703646347806 0  1.129554686622487 0.4893579115624633 0  0.6803878781969045 0.7035160631177291 0  1.32373046875 1.25048828125 0  1.32216796875 1.41767578125 0  0.5499851861317793 0.9439128053349233 0  1.022629866909724 1.040850270203209 0  0.5745442708333333 1.417645342938312 0  0.6210905905518814 0.07817000059074161 0  0.8251326424747147 1.051763251304391 0  0.9840195129520318 0.4094589843317338 0  1.335304710332526 0.8922471458140904 0  1.056578658899854 0.8909713350312058 0  0.6311277392046407 1.158870891931624 0  0.08048866130562571 1.097266504752301 0  0.7899471681381695 0.5900550615276262 0  0.787583911300231 0.6744258112570235 0  0.9253568605083915 0.6931779950154204 0  0.6069241236579608 1.236016193461046 0  0.9754544598564333 1.105608345312828 0  0.5891224709431884 0.6993621756793521 0  1.20518939408778 0.7458807514137317 0  0.7661039078070937 1.202429845202379 0  1.160750676252366 1.424456431149488 0  1.07906062607374 1.432028171475168 0  0.3800251736020173 0.4214243130004857 0  0.9386398271504294 0.6156244973145778 0  0.0625 0.234375 0  0.203125 0.2933407738095238 0  1.215434655272782 0.5908176357312523 0  0.3862873976850203 1.253958025454808 0  0.9642783311550196 0.7603191879845486 0  0.07907187269262334 0.5337704210040105 0  1.05323270401054 1.338218592033867 0  0.7809244217906405 0.07297738156489482 0  0.8538188665025647 0.1992768958275427 0  0.9002757663302332 0.06810835486946346 0  0.3896574912364178 0.6177519597715768 0  0.8312147565658268 0.4504658003252042 0  0.6060876899209792 0.4769383705177015 0  0.6973120163099531 0.973865749266754 0  0.2220506518942812 1.34123409472246 0  0.2016535060668421 1.419937676612376 0  1.067204461774397 0.7475876083618238 0  1.126113744622621 0.8622904019182541 0  0.3283697934586307 0.06033102762239553 0  0.3141768357227177 0.2102768223058998 0  0.8836591735735614 1.110539499889141 0  0.9335121559963067 0.9650712587476813 0  0.489881977219376 0.3554687673286838 0  0.1635028372004782 0.9601830799237989 0  0.190064339368102 1.055218085849877 0  0.4693032589410306 0.1089149617768512 0  0.826087350728517 1.388004148744978 0  1.071391321568866 0.357735705332231 0  1.056880377786583 0.2807740346831144 0  1.3359375 1.1015625 0  1.4296875 1.1484375 0  0.3906148988360577 0.9415494491776595 0  0.06145603826933142 1.359375 0  0.06985309644022948 1.2846420920388 0  1.438543961730669 0.140625 0  1.43014690355977 0.2153579079612006 0  0.161811455697184 1.281243264907209 0  1.2989767800824 0.08251937661177217 0  1.282654529021692 0.1634516867188552 0  1.343324227095839 0.2175851507697937 0  0.5747241214300347 1.087143402580354 0  0.1502172474800126 0.06370164366342397 0  0.07677312842259779 0.08704698619211086 0  0.06709364565267519 0.1592134266688963 0  0.1305803571428571 0
[...]
<PointData  Scalars="f_6700-2"> 
<DataArray  type="Float64"  Name="f_6700-2"  format="ascii">-8.4555509524913729e-35  1.5614268136611995e-18  5.2293603109264856e-45  1.3451569453859181e-39  1.5893646940623595e-29  7.4112668202501438e-37  7.4032448552122249e-34  -3.1688268147240404e-20  2.7876825150267639e-21  -9.2938525783267301e-13  3.8514342696348568e-21  -4.0330864793217940e-36  -1.2254092772296327e-27  -1.0763148907412482e-42  4.0203878090394415e-37  1.0006071905734518e-36  2.3489862181812905e-35  2.1195174051071024e-29  1.1115271791306473e-24  8.1995238559873979e-17  5.9274074001642766e-29  9.6114632657992965e-17  6.0177593402561656e-27  1.1696236364366302e-10  7.9160546565576939e-33  1.3930892468217461e-22  8.2416805845818472e-30  4.9105603636560700e-26  2.0451394332112431e-33  2.6402510080201412e-39  -8.4237027431125888e-31  4.9997859883920560e-26  3.6060587173705537e-13  4.8485462496030574e-31  8.0142519458991611e-21  1.3717010334028140e-20  -3.0760152719974742e-34  1.2459445501881446e-17  4.2473775005609683e-25  7.0249073430104818e-33  1.8197859197949771e-23  5.0533374756787198e-32  -3.8734427401073061e-18  -1.5476019628804753e-11  6.7774916214075261e-38  2.9094103226434403e-37  5.6103760543471600e-18  8.9151117947022630e-14  2.2274344727138803e-29  2.3066392316806378e-33  6.7346718310868236e-25  -2.4550584668197308e-35  6.5140876555196649e-41  1.2908955954317267e-38  -2.2453255925153031e-16  -4.8798541721727107e-24  5.7109240031135198e-34  5.7024656711245308e-45  -3.0121659033007324e-31  3.7014747069153513e-34  2.3115346324471043e-36  1.1483247588617098e-18  2.5340247205827608e-30  2.5404809143013351e-24  2.4112576830639940e-27  1.8139707507689406e-20  1.4621304781273493e-31  5.8911494795337434e-34  2.6865771423111460e-29  3.3698019057191639e-23  7.4334818599831266e-23  8.1992310572884425e-25  5.5813193107980105e-28  -7.4924109844648547e-26  5.1259238910638258e-08  6.9698834444203073e-17  2.5752240272251991e-13  1.6301770601445533e-34  1.1572075276915229e-35  3.2049241299275084e-33  8.7414930840759465e-31  -4.8625524317955714e-12  6.7680960419584023e-21  1.4631361674197644e-28  1.1981471397624928e-25  5.7257087690094390e-34  -9.8967097870939937e-30  -1.3965911510461592e-32  3.5427329869486600e-43  4.3025377589806955e-42  2.8641889182512232e-39  6.7240844503972681e-28  9.4107223182228537e-27  1.2766279509481570e-37  4.4287586786118781e-31  4.6376249093105983e-35  6.6015829098212406e-32  -2.7643374303816909e-22  1.6324461258129113e-34  -9.8764558239038151e-34  8.0205262260780498e-27  1.0796987534415114e-28  1.4762614303556531e-23  2.3885816629833530e-29  4.0144990438201717e-10  1.8320124142421081e-14  -1.2100301279979107e-14  2.5964643491718607e-31  9.9916253331051829e-35  3.5716950995351084e-23  -2.9286949039023310e-18  1.7279879358417529e-16  4.2743030839911520e-18  6.0927374918801083e-16  7.3794905964040336e-19  7.3075211198305124e-20  3.4591214833490533e-31  2.4912180505320323e-31  2.9099158598043374e-26  8.8045541797239477e-19  3.1748709066395313e-32  3.0528042127703829e-36  7.0388532522167419e-20  3.8889661316293936e-22  1.1852148951085796e-38  1.7882455790119052e-28  3.9932180840152716e-22  5.6462462322526404e-12  6.1723720278241606e-34  6.1945172356504308e-32  1.3824364395900682e-33  1.3620323457309795e-16  2.9522744367563765e-27  7.2065218620465198e-37  1.8905300050234095e-30  6.3770379216931542e-25  1.9871402944002422e-12  5.2890340452972989e-25  1.1055905877863338e-15  4.0779437728563317e-23  1.4011632317912913e-26  4.0246400444456373e-27  1.2204938746663901e-27  6.3626877392779880e-35  3.5388875538731871e-34  2.1966583885465467e-38  2.4657623013473943e-22  6.3023205850789189e-33  -6.2803321108439943e-28  -1.5155896082442686e-39  3.6370531384134859e-23  9.2400047136905530e-10  4.7167505738126835e-23  5.7704657045660171e-35  2.4928340878909823e-18  4.9983654139636640e-23  8.9674661537298721e-32  5.2512587852875766e-38  2.6921428251188678e-35  2.4303464865575279e-28  4.1509128707634603e-36  2.8750958884669297e-26  6.5732846945467323e-29  6.7896546412015490e-37  6.5006459701249876e-24  4.7939329936431169e-43  6.4954354743733937e-45  -6.1958716870400278e-35  -5.7790051680492092e-33  -3.3139548706796211e-20  1.9621919378693704e-15  1.2854051336137501e-20  3.5784693854517906e-20  6.5425245570632933e-14  2.3844152601902802e-29  -2.4640147058345449e-17  -1.9773085525523563e-15  6.9963501012987776e-33  1.4639650755922777e-14  1.1627323662377744e-19  1.2377868592453557e-16  1.3828632258644008e-18  1.6711518038420318e-21  5.9002284670506016e-32  6.5891265802965523e-35  7.9597833524570372e-35  -1.8788874132314693e-35  1.7607913078327626e-36  7.9456932577243339e-34  4.4309120609268169e-40  1.9822007686215250e-37  4.3845041583915518e-39  2.7669467251310370e-45  2.1266296490071083e-31  1.5510704909087114e-19  -1.7528587435824551e-11  -3.9042890216403825e-22  -7.6625029704148955e-26  -1.6308954852673362e-29  1.7491529392596365e-36  3.2035680857537169e-37  8.8071699350607647e-31  5.1843149353342529e-30  -5.5044526963200057e-24  2.3056149841447657e-37  8.3762144146432663e-25  7.9826268012228971e-25  -5.1330344775881833e-29  -1.9064484846024610e-15  1.4847301439289081e-10  1.5681320709376189e-26  3.0349455272016868e-30  3.4559537515101019e-27  4.4282213833741239e-33  7.0990563988547301e-30  2.1866856009224236e-11  5.0124317350852515e-36  1.3489248711096045e-26  1.1781032571652078e-33  1.1437150369156810e-27  3.1384011073484895e-34  1.0850469858063423e-34  -2.9240193683743191e-32  6.6870053419478848e-32  7.8922273716215399e-31  2.3151552496769928e-30  1.8055292555544394e-30  2.3191245618123671e-20  1.1557128670276026e-20  8.0152462155122073e-20  6.2803839044379712e-30  8.1611785387842096e-20  1.2265232325001551e-34  1.7770006838415754e-36  3.6928877099550490e-22  2.9711677766672270e-28  2.5544435656107127e-32  6.4371934242504943e-26  7.2925732556302839e-26  1.1817166155722636e-27  5.6548857442502884e-33  1.8506524649335080e-27  1.0552016568504945e-26  -2.4847025033435312e-27  3.1558999271649297e-21  1.8566360239643308e-21  3.5303235629100804e-24  2.0902911643907454e-28  3.0837154253300284e-28  1.7840732339068200e-18  1.8238019340601705e-30  5.5090884167184345e-28  1.1069501634759346e-34  5.7154357272051113e-34  7.9156915093328040e-13  1.3724059908631356e-24  7.4194281129052841e-09  7.0924932575806371e-09  5.3568463931018780e-31  1.1463614785847816e-29  3.2940213682905716e-25  4.5882686512884651e-17  2.6239375909831487e-32  8.4435262235486952e-30  4.2679236124217707e-29  1.5849862241563860e-32  2.9347918373687294e-15  5.9813268297291822e-23  2.7966555946479788e-17  1.4176486671257658e-23  -2.2780518318138877e-32  -6.6647968669459865e-34  3.4473747462581319e-27  1.4198077912133525e-28  5.1884822716807742e-19  3.8134179510628741e-13  2.4137722040540294e-27  4.0682920832608921e-26  4.5618472843740928e-15  -9.8536969927676407e-25  -1.4280430912692922e-26  4.6116547364536932e-21  8.0287484665134134e-32  6.9333941411587807e-31  3.8099767233023870e-33  1.1013954024172705e-33  1.2483401381258468e-35  4.4999498919068370e-22  -2.4380354545501533e-32  -7.6203110297739572e-31  9.3268547514785157e-44  1.2692568634886255e-43  -5.1847327513763807e-31  9.5561504391849230e-41  1.0595658340159537e-40  5.5177339190622754e-42  3.6587284179870872e-25  -2.8712258161279195e-15  6.2948893339504456e-14  -9.6954203692253174e-11  2.6216456861557575e-08  6.5415987847940248e-43  -5.5637138549779492e-34  2.1460650450386801e-28  2.6482597657914621e-30  3.8131865387456456e-35  4.1173785339104679e-24  3.1486075778353029e-22  1.5573686427750006e-18  -2.0397640816409865e-29  3.1318639260601010e-26  3.8473720295111108e-24  8.6812230460639023e-17  3.4349012808926825e-25  9.3035540675154999e-41  6.2962899864473575e-38  -1.6030617996222762e-28  1.3610530119323047e-38  4.9587664696747874e-37  4.9192147070391173e-26  1.0173791486793873e-27  5.3585094490244805e-25  1.4961638066653561e-32  3.0062509797846166e-19  5.5733492707033873e-31  9.9604413400180909e-25  -5.4346627504077118e-17  2.0054081266186124e-30  1.1345045928815676e-35  1.0745437772638119e-20  4.7428287746016057e-13  5.0708795598002149e-36  4.8712829206079054e-24  8.2858346201210537e-34  2.4512834635310676e-18  1.6680125006697690e-36  1.6900993378181774e-13  1.6143315860026243e-32  3.6448424323936445e-18  1.0136713967671673e-31  7.3872736965362898e-32  4.6661949442606277e-37  6.2353852448922278e-33  -3.3971376870557415e-21  -3.6950890139826899e-23  1.1255694276632740e-33  2.0938235226995662e-35  7.5029293611012039e-17  2.0781627135574378e-34  1.6358287347114348e-32  2.8069335048225806e-36  1.5712191544320808e-35  7.6673801573319267e-30  2.7306511840625013e-34  1.0119458816810817e-11  4.4117045533269744e-09  4.9159224705655415e-10  -5.2321489601227932e-25  -2.7865023420948410e-19  9.6910937825890090e-36  4.4119793655566854e-36  4.6071336716044985e-33  -8.1277892436294229e-34  1.5877852676277612e-38  4.5859098387603906e-30  1.0341854588473114e-31  1.1774871438115112e-24  3.6207979505672958e-36  4.7077398888356633e-31  5.8663266359554602e-27  3.0746080288346595e-29  1.6695735597032866e-22  1.0079071975483917e-22  -4.4614404768285432e-23  1.5879232391280440e-34  5.1390562780681595e-13  2.8739260317885753e-19  9.7735691167053849e-19  1.6491296332118359e-23  5.8174479416221991e-20  2.9470689739600796e-33  4.5790603027776182e-14  4.9542297658537511e-17  3.5899994762442829e-16  9.2138017220447634e-15  5.9056065054258262e-32  5.3090559799591102e-35  9.4710186434707143e-15  1.6069623197646414e-22  1.8983944313017287e-20  1.1833840766812373e-20  2.5435724953684682e-14  2.2288257652606051e-16  9.0950955119422089e-34  4.2511359432502276e-34  6.0964615057921779e-10  -4.0157308172530903e-17  4.8486523478908677e-30  3.2285237214433714e-32  2.8742784311029853e-23  8.6434710829068444e-32  3.1888340759121482e-29  6.5236031247713551e-33  1.1720350695485183e-32  5.4452086352239289e-13  3.3098459662168549e-44  -4.7060357739547060e-41  1.6527613631191550e-21  8.5987477997391696e-23  8.4825578226829567e-25  2.1651848790559568e-12  2.0101684268899846e-27  7.1058970073890866e-11  7.5080186937876962e-16  -1.0984108292366027e-35  8.4657608096688830e-21  5.8311556319262424e-22  6.4049790715195153e-28  1.8551520416784016e-19  6.2687258600958921e-18  3.3939606264997694e-30  1.7339153043025643e-31  1.3533899613812476e-19  5.9278161197732135e-18  1.9381621679874881e-25  2.8759672115510454e-28  2.6659062857210864e-30  8.8418750957279893e-32  3.8321471289661739e-22  5.4593563267529334e-24  5.3639673734066926e-31  1.5187697084231283e-33  2.6368786057013397e-39  6.2956210597691298e-24  2.3704193983188046e-28  3.0034405694253696e-31  1.6993875052203307e-29  6.2354683971945563e-25  1.8782871377017572e-23  1.8572261104393116e-22  1.9753983290300845e-39  1.2751068955039836e-22  5.7175079114956458e-34  -3.8168023180877115e-26  2.5735892723202864e-18  1.8254069277624154e-36  3.5166755144000391e-21  1.6147544198132764e-37  9.2481281217948236e-15  3.5774578633602616e-27  7.2829567787284933e-23  6.1682184192383909e-42  1.0750924138280552e-27  -1.9245929569879902e-18  5.4344448301516793e-31  1.0456378779692819e-35  8.3376250257754211e-18  3.6948259380899577e-35  5.6701091834471218e-34  2.1034008742441791e-27  2.2871028674456020e-11  5.4694986664870569e-15  2.3085471433699117e-27  6.4869785052499094e-20  4.6932533532105511e-40  1.0603616590865270e-39  5.0283386101578106e-20  3.2224658810729513e-14  2.8672913899342541e-24  6.3813386235176709e-26  1.8567551666260931e-30  5.6071302481417150e-30  1.6488325478171632e-10  3.8643256389242192e-38  1.7345123511913133e-17  1.2616853681406693e-16  5.2463151075299772e-25  2.8185399858032483e-28  2.3422916997194098e-28  1.9911740916053085e-17  -1.7499259888360280e-35  1.7316197491323974e-35  4.2131359895582765e-34  -2.2294221338534024e-33  3.1324771061493219e-17  2.2897398116235451e-34  2.6965639576704723e-28  1.9865038543574600e-17  1.3092985758385597e-22  2.3991360745089383e-23  1.8719369882080436e-21  6.9023105932214999e-11  1.7894530033519870e-20  8.8475928731304799e-32  2.3569054207626316e-39  2.6795250086315246e-34  4.1405134316942484e-29  2.8308427221383856e-32  -3.3184929089033180e-28  8.8640659965655685e-34  6.6448374075797162e-34  2.1244689636408513e-25  1.5568281921372855e-19  -1.7691852634749824e-43  2.0370084804457777e-44  6.7925913244296583e-33  8.5659245878428398e-26  -1.2191707369478226e-27  -7.3175341571301432e-27  4.4116414479858011e-28  2.3067406313821349e-35  6.0694484826006823e-22  4.3246663418604104e-25  6.7271383073973189e-26  1.8220261989505474e-23  7.8692918734141075e-22  2.1584841017708270e-15  3.5063039295073305e-30  -1.2048076194629778e-26  -1.4560789303610351e-34  -9.6879307870890691e-35  1.5857958059516424e-27  2.5812891817883313e-21  -1.5804266291616240e-20  5.3839614155915723e-37  2.5821212941301942e-27  2.7110196714176713e-28  1.1674071853902436e-29  -1.3231818070770519e-29  1.1993417318498820e-32  5.9857827054429826e-36  7.4124685909595158e-29  6.7515218224822993e-26  1.8312467582067914e-19  2.2437029491741718e-22  1.9774796801780013e-15  7.0330568035912042e-16  2.1230123486140676e-41  2.5130545311509349e-32  1.8921668172692474e-30  3.5514947112264952e-33  -9.0293000641550328e-12  7.6602701035356558e-36  1.1265005343867592e-34  1.7841311722034786e-35  4.8996964456184431e-45  -5.5567705868007199e-17  1.6471603877720624e-15  1.1746260603842934e-39  7.2557473403501933e-17  1.8366729138222140e-16  8.1714334972563503e-26  5.9603288611670591e-32  7.0149654523399192e-34  3.8729675543767908e-26  4.6262561004477584e-37  1.4033086049069402e-35  8.7232884930036856e-24  1.0267141808052266e-42  -1.4804514997132047e-31  7.2685981092127885e-31  2.5083803082069304e-29  7.3913194514166399e-19  1.9018497012951960e-30  7.3801210736295745e-42  3.7200965633518511e-19  4.1236472418755683e-08  9.7843712985742603e-23  4.9543830504632313e-44  -2.3005074749973329e-30  7.8604255566763512e-28  -1.6196837959686510e-15  4.3420472275256656e-31  4.6975392506300632e-41  -3.5499859942785882e-33  3.1687932637009043e-29  2.8363764510099405e-23  8.1473108070342270e-38  1.3178683868089015e-33  2.3353369198938120e-31  9.8856668354037481e-31  2.7210262322615654e-12  2.9946591913655671e-33  1.3991913112780308e-36  6.0677847331418127e-13  7.6426595077331312e-34  5.5903732829626185e-38  3.8552565686072443e-29  5.9642979564981580e-27  5.4786899108600086e-27  1.6656510934671729e-26  5.8168648931097486e-37  4.1303508721164455e-24  1.9526978664007258e-15  1.1228718146900918e-27  5.5064540472171625e-19  2.6502063002272851e-20  2.3110490340941973e-33  3.0508019614814089e-29  -1.2019490700669016e-25  2.9445737793520624e-29  -4.5909149103278490e-23  1.0044867866415808e-20  -1.6981866414711637e-18  -1.7232448590291574e-18  2.3031835832160417e-36  8.1817318830214566e-38  1.8656239137032114e-21  3.6826907422803050e-19  4.9955266167853664e-29  1.9207059366338478e-34  5.3255868928115942e-26  1.0530918695310608e-33  5.7815813929314088e-22  9.5722510769656793e-28  2.1202643905105612e-29  7.0069498937801739e-42  3.2318271027080948e-35  1.0020933484321098e-29  2.0221525044376361e-18  1.5433309037156075e-34  8.1025459738370722e-28  4.9426642043062160e-32  6.8627566442453693e-33  1.7226012288369331e-30  1.4763950236105896e-36  -2.4926537580286600e-30  5.4345836123921544e-45  5.5031352095275825e-29  1.1244943872366397e-13  1.3551218343508896e-13  2.7898121093144439e-15  2.4322612980940720e-18  5.6059305473085612e-23  1.0253160528761332e-26  4.6220977417722543e-31  9.7738111666839719e-36  -1.7202998760350079e-13  4.7096693805238001e-17  2.6208663408699713e-41  2.8974316365807852e-39  7.2117288329920423e-24  3.1194583385632128e-32  2.3316149700570072e-09  1.0337783689994958e-20  8.2917977365145493e-22  3.5784862320351068e-24  1.8035829602729757e-32  1.3696422766865815e-32  2.3163720193091980e-35  5.9505747985348870e-26  1.1441515095044433e-29  9.8028408988676128e-35  6.5515895245282728e-36  -1.0486393795262182e-30  4.8000697721937789e-33  -3.6905958127322691e-20  8.8456220326172442e-33  1.6811138492697656e-35  2.0251442514408976e-28  7.6165904573598793e-38  9.9498233810266655e-37  -5.8326594504660481e-34  -7.0195199486774977e-35  7.4917004258692002e-34  -5.7718572984537841e-25  2.0528643944867997e-35  2.1740324968867864e-36  3.6939926819090215e-36  2.7421281066965553e-34  4.9849192666022145e-37  1.0595796633626990e-36  2.0792435207817095e-36  -2.1454113083581547e-17  -3.4906489219124410e-19  -3.6467045155311333e-21  -1.0050234316450823e-13  6.8243910383920682e-24  -1.3725312426460341e-28  5.0186656481276471e-38  -3.8980431923979964e-35  3.7682353236392699e-17  7.3517879340894890e-45  -4.9354530342577680e-32  1.6480350542790272e-20  2.0647291761683277e-32  -2.5567532135302211e-14  -9.5347375586431323e-12  4.6063859116518271e-35  9.7961945006006317e-34  2.9316476493842986e-38  3.7543305858432834e-39  4.3567356648341353e-39  -4.5599059309405332e-23  4.1011453276568253e-34  -3.5151390940135127e-12  1.9756235261577356e-34  1.5869840426835424e-36  1.5218794827871815e-37  7.4643808938038575e-27  4.6660134633563786e-31  3.6397555249205211e-14  2.0191166842880122e-25  3.5102186924445075e-24  6.6313434817603628e-12  2.3427208164352366e-12  3.8324809333958876e-11  9.0617864808685626e-34  8.4171268406010264e-18  8.6629167764953747e-12  -7.5666341772420157e-30  5.2707820969775542e-13  -3.6073403707525952e-23  -5.4091336828784209e-24  -6.5682042917730268e-25  -3.6779372851166685e-21  5.1642779366807945e-16  9.9580558335497518e-12  4.5290257293176867e-09  4.6384400202857465e-34  6.0436050342725925e-28  9.9424151124090816e-33  1.5672814160866157e-12  3.1072767736468768e-23  2.1214201963804140e-35  7.3996155475934063e-22  -7.4472514704366922e-24  5.3973941666797224e-26  3.9873042076357943e-19  2.5361205257360963e-14  1.1120262839508593e-14  4.3405391216344887e-26  2.6136439968442283e-27  1.2366736742092355e-26  5.5858824513144493e-16  9.5640573091108648e-18  8.7245007374924416e-44  4.0030279468869888e-37  5.3536034600882155e-35  1.4337134124083192e-24  1.5254938406884431e-13  5.8560036753720234e-34  3.9392095505407985e-36  2.2567740868215438e-26  1.7756085833117809e-27  1.4862901538570623e-16  4.6027277691083378e-25  2.0444697174448454e-33  1.2378712225908838e-19  1.7914645806449158e-30  3.1292630254377841e-29  1.4537611876797439e-29  7.8756002245322494e-31  8.4281167332515804e-31  -4.2899626437990405e-22  1.0873902867508360e-23  6.4535741105818071e-26  5.6599456645126794e-25  -1.7166412450451697e-28  -8.7574527848955659e-29  2.2611873660279568e-31  9.2510834913099297e-21  1.5867567598753596e-25  4.7600445290821192e-15  1.9308483250947121e-30  3.1810719908124268e-32  3.3639037208776591e-22  3.4416638421700043e-31  -2.3698129448542290e-30  4.2551672126361546e-26  5.4729665583395095e-24  1.9356816940369436e-24  6.7451943374852255e-41  -6.6017320389163940e-33  2.2635039510445176e-32  -3.0825693982573473e-31  -5.4289426328452408e-32  3.1949932919125560e-32  2.2167916317931093e-25  1.7118579040597950e-17  2.5708077626840484e-33  1.6414108631220928e-23  1.1118503863306778e-25  2.5843787266558863e-26  4.3220719148251008e-38  3.9292518057645010e-19  2.0379381934525534e-25  8.3166804970380475e-39  7.4832399203015722e-30  3.6078088812129743e-33  3.3258263726611760e-12  1.6062381244076829e-37  3.6160329419653432e-24  2.2483085034831286e-33  2.8311002770995200e-33  2.5298437750912316e-36  1.5942593401042152e-34  2.1784031486058293e-31  -1.4431395674240936e-34  5.7935314800492839e-21  2.0793673710171088e-24  1.9127936430681725e-14  6.9959653344060041e-19  1.3594196608053443e-30  4.0135885900816511e-29  6.6469519915037428e-20  7.0387979376074199e-43  1.4662387195707418e-20  1.9225234733492957e-35  1.2023708117069703e-32  2.7312379596646810e-16  1.8142435326997774e-34  -9.7133273761890959e-35  1.2080147459807196e-32  1.8548780830502729e-42  6.7087305837173846e-10  1.0557780052235756e-35  1.4995917714141573e-33  1.0526352547231309e-36  6.8323900597515606e-23  5.8290406682482971e-40  1.1521707049220267e-28  -6.0539560657020922e-33  -5.3753211149342663e-32  -1.930165607