<?xml version="1.0"?>
<VTKFile type="UnstructuredGrid"  version="0.1"  >
<UnstructuredGrid>
<Piece  NumberOfPoints="6486" NumberOfCells="12696">
<Points>
<DataArray  type="Float64"  NumberOfComponents="3"  format="ascii">0 5 0  0 0 0  5 0 0  5 5 0  2.5 0 0  5 2.5 0  2.5 5 0  0 2.5 0  2.5 2.5 0  0 1.25 0  1.25 0 0  1.25 5 0  0 3.75 0  5 1.25 0  3.75 0 0  5 3.75 0  3.75 5 0  3.541666666666667 1.458333333333333 0  1.458333333333333 3.541666666666667 0  1.875 1.25 0  3.75 3.125 0  1.284722222222222 2.326388888888889 0  2.683189655172414 3.767959770114943 0  0.9375 0.9375 0  4.0625 4.0625 0  0.7252209595959597 3.026357323232324 0  2.763480392156863 0.9129901960784315 0  1.875 4.345238095238095 0  4.345238095238095 1.875 0  4.192708333333333 0.8072916666666664 0  0.8072916666666665 4.192708333333334 0  3.368055555555555 2.326388888888889 0  0.6837606837606839 1.738782051282051 0  3.285485245626782 4.324328415208927 0  2.551239698778062 1.693130150610969 0  1.827256944444444 2.868923611111111 0  3.464875022477093 0.6813924607921316 0  1.942880513719175 2.059558626187995 0  3.04563492063492 2.971230158730159 0  4.375 3.4375 0  2.13639445139758 0.5994472256987903 0  4.272228422619047 2.606956845238095 0  0.625 0 0  0 0.625 0  5 4.375 0  4.375 5 0  0.6400043240752655 2.384646170113389 0  1.347691225855598 1.660875475110776 0  3.515783617857982 3.723905460714006 0  3.125 0 0  1.875 0 0  0.625 5 0  4.375 0 0  5 1.875 0  0 1.875 0  0 3.125 0  1.875 5 0  5 0.625 0  0 4.375 0  3.125 5 0  5 3.125 0  1.489644181965304 0.6007147273217681 0  2.054597701149425 3.742302955665024 0  2.662520990197781 4.39452575763237 0  2.415835363784578 3.165530021913244 0  0.8679986894865213 3.602373689486522 0  1.267459753787878 2.886186079545454 0  4.099702380952381 1.365327380952381 0  1.316964285714286 4.438244047619047 0  3.7915135293491 1.959691594758709 0  2.875141124191255 2.118761176511833 0  3.00418010501169 1.397414179299248 0  0.4081721322167092 3.410647930198662 0  0.4166666666666666 0.9375 0  1.014190407998288 0.4422301359994293 0  1.383260571305984 1.162718286082048 0  4.53125 3.90625 0  4.453125 4.453125 0  3.772848162504192 4.48678272083473 0  2.8125 0.404329517041716 0  0.4538690476190476 0.4538690476190476 0  2.305461739347387 1.04517007574828 0  3.771263799175824 2.624190260297553 0  3.229617768018734 1.809956994202883 0  3.780190884441317 1.025307111692601 0  4.646337365591398 0.9375 0  4.537623451379149 0.4609485750426037 0  1.200477888421151 3.934852888421152 0  0.3536626344086022 4.0625 0  0.4623765486208503 4.539051424957397 0  4.0625 0.353662634408602 0  4.560525106689535 1.390989100915847 0  3.958439078571988 3.619844539285994 0  4.672619047619047 2.1875 0  2.1875 4.672619047619047 0  1.862808494877602 3.325947624431087 0  0.3268135998175443 2.8125 0  4.674181280189791 2.8125 0  2.283233994935276 4.138623547175983 0  0.9375 4.677879119362977 0  3.08488061581743 3.469889594488945 0  3.113427375573758 3.913955730709506 0  1.652847799068813 3.950848935641292 0  2.932652662909449 2.550542739521724 0  3.311350648514189 1.088831994878698 0  0.6770833333333333 1.295851139601139 0  0 1.5625 0  1.047214787840024 1.96818092308125 0  4.183331482095785 3.03958703580843 0  3.4375 5 0  1.071307777252521 3.246275861010018 0  0 2.1875 0  0.386576856303419 2.03125 0  1.713862716483534 2.439783116849799 0  1.775396256975935 1.665976816304977 0  2.231236976948428 1.443917394671254 0  2.373900732409897 2.086930260150635 0  4.114918237574474 2.221646174618671 0  3.661302567757379 4.099620139144836 0  3.378215938602977 2.734494874063393 0  0.9842097536079312 2.597286741306247 0  1.642795138888889 4.672619047619047 0  4.0625 5 0  2.099458800960004 2.567446522665629 0  2.616202751603346 1.297895893940078 0  5 4.6875 0  0.9937554350075428 1.512592975947215 0  2.8125 5 0  3.002695327068194 4.614055254615477 0  3.205627424097207 0.3852436382721472 0  1.678616581261621 0.927556612265266 0  3.365326698305438 3.196943731162083 0  1.554834936170314 3.120009882655813 0  3.108408340729323 0.7797187795784133 0  3.684368918102174 0.3728877601163941 0  2.716214835303553 3.39276351922003 0  2.37718583984784 3.551973401560441 0  0.3750662445374837 1.52191994866787 0  2.679073487930202 2.844160731602957 0  1.557635869750078 1.991068682985722 0  1.812595698561088 0.3839273018252746 0  2.512014721281916 0.6320641118792227 0  2.1875 0 0  2.349973454443689 0.3189980586887866 0  4.6875 3.59375 0  4.636052949022233 3.178355898044465 0  4.6875 5 0  3.345485909784306 4.665765449101383 0  0.536727472389443 3.749603193819277 0  4.349541499640203 1.116201826262156 0  2.886559045931982 1.774013674579691 0  0.6770833333333334 0.7142857142857143 0  1.5625 0 0  4.120842096538671 4.628726497527622 0  2.176157474177018 1.793470423744689 0  2.175650736889416 2.909863021769539 0  4.036616464259081 1.709699085170981 0  3.887974623473683 0.6492597046022868 0  3.4375 0 0  3.70675699592552 2.289666624772415 0  4.697265625 4.208984375 0  2.815177577303495 4.085937578239174 0  4.672619047619047 1.730733296184288 0  4.6875 0 0  5 0.3125 0  0.3125 5 0  0 4.6875 0  0.3276089296588581 2.484526834811734 0  0.712433309515852 2.065138854645612 0  0.6376435912223634 2.711473454001295 0  1.184991292170422 0.7222504400947201 0  1.31884329779317 0.3206944232264773 0  3.683609198994263 3.44428698533042 0  0.3125 0 0  0 0.3125 0  4.231797269642997 3.789141808928991 0  1.564375596050781 1.425998687184973 0  2.007640894175573 0.9032106925568466 0  0.955125897558294 2.276666098587227 0  1.43898735721003 2.611310720271951 0  1.954491523717513 4.040700257877075 0  1.752947649777421 3.652439445419346 0  2.509575750247638 4.678021307664052 0  4.687194709705067 2.499965519538002 0  1.5625 5 0  0.9375 5 0  5 2.8125 0  2.1875 5 0  5 1.5625 0  5 2.1875 0  4.0625 0 0  5 0.9375 0  2.8125 0 0  0.9375 0 0  0 0.9375 0  0 2.8125 0  0 3.4375 0  0 4.0625 0  5 3.4375 0  5 4.0625 0  4.010848109290813 3.306446973933037 0  0.3077461147713075 3.119700563473354 0  4.6796875 4.6796875 0  2.333079012424948 3.845757959077508 0  0.7829771267899832 3.317744656243421 0  1.159100632608513 3.532487125138763 0  0.799066251840424 3.893573750162776 0  1.57326499580282 4.255438189102632 0  0.7309366047093668 0.2991402264438908 0  0.3054777494262156 1.223275888123843 0  4.027475154280377 2.78211326942427 0  2.35270874745988 4.426658168476266 0  3.474236283732569 2.021154281686229 0  4.401414236174444 2.329446628171927 0  3.39403781747337 3.987097102903034 0  1.077524329801934 1.214100792470484 0  4.065611571711903 1.066085524514197 0  2.165399002716117 3.335637450367864 0  3.007639563081306 1.093684039371638 0  4.030818285732145 4.351883315180857 0  3.504115222530889 1.739284194222036 0  1.224503368215566 4.712091441401919 0  3.805634204685714 1.321528442399996 0  4.319233123479386 1.573547993867769 0  1.024007670021325 4.394604704797005 0  3.776400432023095 3.839003324979723 0  2.991819819453308 4.320567175146181 0  0.9782797534072181 2.886406017887129 0  1.763835134082104 0.6602345487826022 0  3.765182288741625 1.631193038541544 0  2.267959593989681 2.345053543725764 0  4.412434895833333 4.168294270833333 0  4.4072265625 4.7255859375 0  2.791493971314009 3.11210833271929 0  3.408766223032414 3.469500900677365 0  1.915147569444444 4.725484476461039 0  2.070301968506271 0.2605666686358055 0  2.767932250651506 1.530295992695836 0  3.280065043173439 1.364863281105779 0  4.45101570110842 2.974157152713635 0  3.521928862999512 2.96990445010402 0  2.552921961347576 4.008414007169315 0  0.2682955376854191 3.657555015841003 0  3.084522868361304 2.310593316718068 0  2.669255823227708 1.939379494498064 0  2.615884629473921 2.238841231570381 0  1.405652091971449 0.8877813821442277 0  3.25151486618811 3.68536115104276 0  1.963741569810629 2.331207252264507 0  4.017297980292599 2.486269171379106 0  3.869168920841219 4.748188103831625 0  3.596868753579134 4.77342723825056 0  2.41262958240343 2.764128584995838 0  1.266750578673391 1.404747710001619 0  1.559243962241121 2.85146506328516 0  3.128799423834764 2.052081657715259 0  0.6770833333333333 0.9778025793650794 0  0.2083333333333333 0.78125 0  1.978224492765132 3.087074731032578 0  4.051448850909273 1.969392119104174 0  1.320577095006813 4.172234780971559 0  3.214261103850064 2.534397293281829 0  0.2635729089754111 1.779234736680035 0  3.510775680035133 4.460728640112889 0  2.603081405968802 0.2432579385496493 0  2.866341315154884 0.6662105505481998 0  3.000919221100777 0.2270278495648781 0  1.298858304121393 2.05917319923859 0  2.020292299736597 1.589794568392338 0  0.7401688396476035 4.470780315741533 0  0.6721783535561408 4.733125588707921 0  3.753712482075402 2.874301339727514 0  3.557348205914658 2.491958694539413 0  1.094565978195436 0.2011034254079851 0  0.9338148378011396 0.6833568465908735 0  2.945530578578538 3.701798332963805 0  3.111707186654356 3.216904195825605 0  1.341791111822685 3.293123262233967 0  1.632939924064587 1.184895891095613 0  0.6335477978936732 3.517393619499591 0  0.5576014611130192 3.210998966942492 0  1.564344196470102 0.3630498725895039 0  2.75362450242839 4.626680495816594 0  3.571304405229554 1.192452351107437 0  3.522934592621944 0.9359134489437148 0  4.453125 3.671875 0  4.765625 3.828125 0  1.055906321410838 4.14310472322957 0  4.795146539102229 0.46875 0  4.767156345199235 0.7178596932040019 0  0.2048534608977711 4.53125 0  0.232843654800765 4.282140306795998 0  0.5393715189906129 4.270810883024032 0  4.329922600274667 0.2750645887059072 0  4.275515096738972 0.5448389557295173 0  4.477747423652795 0.7252838358993123 0  0.2002829820452772 0.46875 0  0.4352678571428572 0.6956845238095237 0  0.5007241582667088 0.2123388122114133 0  4.672890923830735 0.2500902110494848 0  0.4308009280819452 4.783624996516437 0  2.104871305393774 4.438653689007242 0  0.2274454167838428 0.2274454167838428 0  3.446466574593436 0.4359605369011901 0  2.12354112127588 1.217588426759619 0  2.309175236825235 0.7888355970690434 0  2.556178570281936 1.054299163237582 0  0.578683248637
[...]
<PointData  Scalars="f_800-2"> 
<DataArray  type="Float64"  Name="f_800-2"  format="ascii">2.0151714183547717e-11  2.6515593984854761e-11  1.9832883147618673e-11  1.9614062202086860e-11  2.4526261081635590e-11  1.9834147597153159e-11  1.9990839934466015e-11  2.4589184576887049e-11  2.4441384616722845e-11  2.5975384438565921e-11  2.5947941789567122e-11  1.9918747833901828e-11  2.2505563401652267e-11  1.9827797249658889e-11  2.2426473954331120e-11  1.9858224695639578e-11  1.9970792203429292e-11  2.2817111452312319e-11  2.2922461937213747e-11  2.5345225408521361e-11  2.2451762009770783e-11  2.4836415794549475e-11  2.2506156740456744e-11  2.6146916797876342e-11  2.1641841094743980e-11  2.3801182509307138e-11  2.4134278340263261e-11  2.1385752597539662e-11  2.1244760758497942e-11  2.1539953234050053e-11  2.1724653426763673e-11  2.3157111357233800e-11  2.5530703627795954e-11  2.1412544631109939e-11  2.4469991493963235e-11  2.4056217975940075e-11  2.2947831139609854e-11  2.5136421933266980e-11  2.3610976841053508e-11  2.1209435068287036e-11  2.5020567160957985e-11  2.1403116165412526e-11  2.6348894842351434e-11  2.6356596767019931e-11  1.9861980752843186e-11  1.9986870290687801e-11  2.4762640910397305e-11  2.5639279986711104e-11  2.2519009334227412e-11  2.3533155619535041e-11  2.5326537589671790e-11  2.0087704291136764e-11  2.1172750654964670e-11  1.9816158489088956e-11  2.5380988444526918e-11  2.3622890193911401e-11  1.9969703905800872e-11  1.9830106488322095e-11  2.1440986639874503e-11  1.9984609323591479e-11  1.9840111556423753e-11  2.5741500622103100e-11  2.2564219798483866e-11  2.1266569702565422e-11  2.3595003136122702e-11  2.2794588161471150e-11  2.4041382206100959e-11  2.1735385752896872e-11  2.1167244626885162e-11  2.2361231670876041e-11  2.3981618629556247e-11  2.3761002666524354e-11  2.3136637653703714e-11  2.6196939719751194e-11  2.6129298438994596e-11  2.5828581826757475e-11  2.0879528777572739e-11  2.0814244744005445e-11  2.1084930268330158e-11  2.4057608123241030e-11  2.6396339706750677e-11  2.4810688886487975e-11  2.2418180694882768e-11  2.3391649845277400e-11  2.2364387391687226e-11  2.0594230414142791e-11  2.0831757462632549e-11  2.2168108113762133e-11  2.1900363796593043e-11  2.0923177592323130e-11  2.1810070646654892e-11  2.0767841569516544e-11  2.2011868478424706e-11  2.0545797576740706e-11  2.0694882556415598e-11  2.3309351181514609e-11  2.4132467416822283e-11  2.0546022006020118e-11  2.1792472758037414e-11  2.0629678984588943e-11  2.3062396016597139e-11  2.2244083203354027e-11  2.2153747503842323e-11  2.3875006036632652e-11  2.3227494406384437e-11  2.5943387716512177e-11  2.5703706789274973e-11  2.5280326140853410e-11  2.1608429308017217e-11  1.9979299374852147e-11  2.3436495389125853e-11  2.5010643844336654e-11  2.5220137130051617e-11  2.4690402681285065e-11  2.5420180137949000e-11  2.4909848469106653e-11  2.4705424384215759e-11  2.1715748956064197e-11  2.1868170490721652e-11  2.3137607859357821e-11  2.4463495744995908e-11  2.0652001395713401e-11  1.9973601807201975e-11  2.4538689714855517e-11  2.4376268757525745e-11  1.9794073430731094e-11  2.5764258401184066e-11  1.9991422954005285e-11  2.0817244946538556e-11  2.3403083414713479e-11  2.5556749270149641e-11  2.3095878302739882e-11  2.3662684918814709e-11  2.3578354167238408e-11  2.2534136474728406e-11  2.3210125087912113e-11  2.2905326049680837e-11  2.5742849551875566e-11  2.4042174881214635e-11  2.5294206374955878e-11  2.5403822115081157e-11  2.4506432038831263e-11  2.4944875882924776e-11  2.4728622141053918e-11  2.0540376513568439e-11  2.0638622584932688e-11  1.9902400050775276e-11  2.0684021161552427e-11  2.2506009269493532e-11  2.1214099573869828e-11  2.3968504116250284e-11  2.6294134311874261e-11  2.5664392280165964e-11  2.0773389240377230e-11  2.4977783658856014e-11  2.4007019746591117e-11  2.1865655904155640e-11  2.2144571453517681e-11  2.2995812799128069e-11  2.2528888919974276e-11  2.0497186227984145e-11  2.1899204125177587e-11  2.0531576605591829e-11  2.0506035189699796e-11  1.9833831957177515e-11  2.0175872079079329e-11  2.0783267010754143e-11  2.4618309650511792e-11  2.5165967948999295e-11  2.4292666863201900e-11  2.6006981962962185e-11  2.5893285906740547e-11  2.2524695028791917e-11  2.6465457899166569e-11  2.6459865462742339e-11  2.1476511618035952e-11  2.5645865122828131e-11  2.5186892721227466e-11  2.4901492399990156e-11  2.4446676586892810e-11  2.1990875722524003e-11  2.2725250125736074e-11  2.0678331948170902e-11  2.0514169715646689e-11  1.9988310654091671e-11  1.9958570525857114e-11  1.9840962321810962e-11  1.9968841377400521e-11  1.9817875651494149e-11  1.9822716105233388e-11  2.1813342716575524e-11  1.9838126984259645e-11  2.4046203138673594e-11  2.6176108616802019e-11  2.6193141243303548e-11  2.4122573204604471e-11  2.3081215828254561e-11  2.1849131348745618e-11  1.9848898065388064e-11  1.9863485479729014e-11  2.1947202733370266e-11  2.3634010408379777e-11  2.0318691444949516e-11  2.2367351523935355e-11  2.3308083052594725e-11  2.2935855531437069e-11  2.2252424418533212e-11  2.1549232208078535e-11  2.6300356196735975e-11  2.5997138639189885e-11  2.1914708771767718e-11  2.1224925435692858e-11  2.2958455013893562e-11  2.1121604209773006e-11  2.2105410365402300e-11  2.6008709764709920e-11  2.1798738570320621e-11  2.3289049782650890e-11  2.3748188738300582e-11  2.1312362149897963e-11  2.2893668499786234e-11  2.0614634375419763e-11  2.2321582412630524e-11  2.1286473317695867e-11  2.1296092035237273e-11  2.2167719198586947e-11  2.1413393952278524e-11  2.4030459493283242e-11  2.5464355957165563e-11  2.2397900539888272e-11  2.4732297193108441e-11  2.1049875472617808e-11  2.0504031419542372e-11  2.3673438903192237e-11  2.2878624700843986e-11  2.0552931195969955e-11  2.5097875988560096e-11  2.4146021571170797e-11  2.3289282801228416e-11  2.1034171370718994e-11  2.2872531893544113e-11  2.2045853437312532e-11  2.2682633245825312e-11  2.3643240426599474e-11  2.4297966280983623e-11  2.4368961831480834e-11  2.5822126797927248e-11  2.2673942108752048e-11  2.4862720854294234e-11  2.1923662975626343e-11  2.0517992500832304e-11  2.0456513276701996e-11  2.4240122773685981e-11  2.5849333617315129e-11  2.4086364469497882e-11  2.3569931352896027e-11  2.6195518812381151e-11  2.6283607376783755e-11  2.3708502765144674e-11  2.1843188107984139e-11  2.1704464580235610e-11  2.3422967983495791e-11  2.5486379928097514e-11  2.1128944188873426e-11  2.4375298365045571e-11  2.3969131297680306e-11  2.3746802062214219e-11  2.5175044000965914e-11  2.5173447671955209e-11  2.1067434250461074e-11  2.0511446816050752e-11  2.2447897217059132e-11  2.2819452800287031e-11  2.6070152912718446e-11  2.6179772708567147e-11  2.2647346356413970e-11  2.3376171698030439e-11  2.3364918892420198e-11  2.5605042482503292e-11  2.2953136221698838e-11  2.3486371971792185e-11  2.5668080275296814e-11  2.0782624479437903e-11  2.2761223673875254e-11  2.2852807393014578e-11  2.1043044179775316e-11  2.0374986141888448e-11  2.1765466300175139e-11  2.0267537750492538e-11  2.0341235504467454e-11  2.1084759532356492e-11  2.1445854710375338e-11  2.1483704152163133e-11  2.1269567533232311e-11  2.1377562790499708e-11  2.0955546756449800e-11  2.6428719815724798e-11  2.6348382488571086e-11  2.6404952274399497e-11  2.0539715280198713e-11  2.0544411307715399e-11  2.1188036128813603e-11  2.6470912126370570e-11  2.2973341240226545e-11  2.5046263548703249e-11  2.4799501622062769e-11  2.4458999513868626e-11  2.2098185851452156e-11  2.3277283304700290e-11  2.4939924148147322e-11  2.2250358636320985e-11  2.2201282207756193e-11  2.0379556903845926e-11  2.0323430897667778e-11  2.0314928241610739e-11  2.6002119698461673e-11  2.2458669443313516e-11  2.2446027394239041e-11  2.3652437081208455e-11  2.1232215418960796e-11  2.3621954796422853e-11  2.2540270609595665e-11  2.5520092310138230e-11  2.3262323169559704e-11  2.2940017290820580e-11  2.1244931571737070e-11  2.5504941708691618e-11  2.1020692987023276e-11  2.1584066707971746e-11  2.4910060357719368e-11  2.0323120829801937e-11  2.5847352340149389e-11  2.4531217493050471e-11  2.1667283688667564e-11  2.1864095584482277e-11  2.1980753276164364e-11  2.0339592985713152e-11  2.3983300672421365e-11  2.4366267408975051e-11  2.0188767487610136e-11  2.0911037338533614e-11  2.5114648488593056e-11  2.3268018297550603e-11  2.3223451449027021e-11  2.1535785072427851e-11  2.2708654061999009e-11  2.0195944929226973e-11  2.1842153893177956e-11  2.4060489570086022e-11  2.0431685308146732e-11  2.4420577302503205e-11  2.5748150200873580e-11  2.6089658482445334e-11  2.6063510530836872e-11  2.3225965006403303e-11  2.3360404286397540e-11  2.4809500575211984e-11  2.0186398733232717e-11  2.0186784452854271e-11  2.0317299125687595e-11  2.0553546162057950e-11  1.9985618937697546e-11  2.2033174791171690e-11  2.1404111874364891e-11  2.4110704375011757e-11  2.0314759383951578e-11  2.3651255461486808e-11  2.1687641828777750e-11  2.1799021376704538e-11  2.2346058029600359e-11  2.4171956600460850e-11  2.3898498231005045e-11  2.6271370951808842e-11  2.1159028958093773e-11  2.3324914035587911e-11  2.4936997137243166e-11  2.4691350660280188e-11  2.0327076048402988e-11  2.5422436181907045e-11  2.5444026622063142e-11  2.5591317638330047e-11  2.5225501980944942e-11  2.2047758763516481e-11  2.4377792421405812e-11  2.2912820997088452e-11  2.3649609260611709e-11  2.2188394893854381e-11  2.1608619779787123e-11  2.0792445644569742e-11  2.3731650391671175e-11  2.4507248186213422e-11  2.5978056690170655e-11  2.1136836512505058e-11  2.5434937846849575e-11  2.5365033227798362e-11  2.1252179616631373e-11  2.3866807624686678e-11  2.3289763073815986e-11  2.0745804729667218e-11  2.4227965580205654e-11  2.6142070045432490e-11  2.5269932841625848e-11  2.2121472382200247e-11  2.1453751761634903e-11  2.3812417021423260e-11  2.1526533521736117e-11  2.0513807506469211e-11  2.3688721341391300e-11  2.5610687999948675e-11  2.0151302196777833e-11  2.4704427182379278e-11  2.4580412927780706e-11  2.4768858879336346e-11  2.1162527186911010e-11  2.3114738283949914e-11  2.3694839299525747e-11  2.2753386147156958e-11  2.5934829078066037e-11  2.5018931527578775e-11  1.9932232354086722e-11  2.4537633025142934e-11  2.2288018360135903e-11  2.2339944737632580e-11  2.1118601795598909e-11  2.4274584740622815e-11  2.4677151586357778e-11  2.2579429276579028e-11  2.2801420891911864e-11  2.2213737076707362e-11  2.1884462567370440e-11  2.5809880547140601e-11  2.3926558189909988e-11  2.0310160448793253e-11  2.0844616536730181e-11  2.1788791516099943e-11  2.4489575223971534e-11  2.2046959672246013e-11  2.4071304748032922e-11  2.1819933729916227e-11  2.5743027103672849e-11  2.0820543779245818e-11  2.3032073190643758e-11  2.5007779296863286e-11  2.2634376547192867e-11  2.0217537600847575e-11  2.5453515444699861e-11  2.3130434981028413e-11  2.4069513420421888e-11  2.5267238854230930e-11  2.0842891570558255e-11  2.3256551444434929e-11  2.5025869639170159e-11  2.1102032243840185e-11  2.0521391253699776e-11  2.0972795403708148e-11  1.9964439748266317e-11  2.5176660082977781e-11  2.5776862450081856e-11  2.4309225228278749e-11  2.5671497790401534e-11  2.2990657347838828e-11  2.3491379269131939e-11  2.4530782928770154e-11  2.1499454512567913e-11  2.1621213882559296e-11  2.4253455396520408e-11  2.0963203920393824e-11  2.5321271296070407e-11  2.3506653691386373e-11  2.5906841474989606e-11  2.2178706866513139e-11  2.5673886575901128e-11  2.5437807651906762e-11  2.4760333662001193e-11  2.4257174861846594e-11  2.4258326534817937e-11  2.2876726881031540e-11  2.2566250419592722e-11  2.3482759242529788e-11  2.6189972921096462e-11  2.0008490447124824e-11  2.0899663542037603e-11  2.0821921333236285e-11  2.0919511964640384e-11  2.4749063515938673e-11  1.9985453205726868e-11  2.5712054658355012e-11  2.4962700195928961e-11  2.4709796637164065e-11  2.1480001492065464e-11  2.3833808655654345e-11  2.3864639848959898e-11  2.1560951117012540e-11  2.3702379776700988e-11  1.9813792687411092e-11  2.0591955284145501e-11  2.2295478328151244e-11  2.1381943472757807e-11  2.2394277755852777e-11  2.1357323467989048e-11  2.1995358453271715e-11  2.3393199446170047e-11  2.4602271003925169e-11  2.6269561384417661e-11  1.9831434683845892e-11  2.0208352369721945e-11  2.0343136131929154e-11  2.5311286822447020e-11  2.2661016265962398e-11  2.2824373619113575e-11  2.2692196816078158e-11  2.0419546461958509e-11  2.5198203371840485e-11  2.1648163621499132e-11  2.5220356048117035e-11  2.5124348248429130e-11  2.2036780194044980e-11  2.2796416670323413e-11  2.2098783495947350e-11  2.0274939455592951e-11  2.0299102035845544e-11  2.4881286542061616e-11  2.5582905531761180e-11  2.4292659138640138e-11  2.0694572689500588e-11  2.1203419114545756e-11  2.2493439331819537e-11  2.2866177211708429e-11  2.2632471597192341e-11  2.2314015361772846e-11  2.1898845895624165e-11  2.1398691200820100e-11  2.1513307828818464e-11  2.4603458601350292e-11  1.9827407368166168e-11  2.1600164730702492e-11  2.1683099892492469e-11  2.2089466388728401e-11  2.0193392699635185e-11  2.0710680702997209e-11  2.0243562725690279e-11  1.9821845052856600e-11  2.1466582233811789e-11  2.1487839968824233e-11  2.4998367196840611e-11  2.4959852511696417e-11  2.3278482101897318e-11  2.1045873402230079e-11  2.0343235308551798e-11  2.3127023704484827e-11  2.0175459180309041e-11  2.0775481790635945e-11  2.4234280137025682e-11  2.4027118109096128e-11  2.0661461610225704e-11  2.1257013571028995e-11  2.3041786753294490e-11  2.5371726905627097e-11  2.2120821231373509e-11  2.0856057412879246e-11  2.0904998752320654e-11  2.6349088162733780e-11  2.6284987427311186e-11  2.6222200431116529e-11  2.2618113112301143e-11  2.0165706819368925e-11  2.2850032744149214e-11  2.5548318658429855e-11  2.0182393207031449e-11  2.0808310989946131e-11  2.3693285898512621e-11  2.3066288225797366e-11  2.1551134042959061e-11  2.0111834382432527e-11  2.3576852457193720e-11  2.0841675122584936e-11  2.0215357280105435e-11  2.5617135909476564e-11  2.3821060946019195e-11  2.3191740164653208e-11  2.0891630187772502e-11  2.0168395095256065e-11  2.2932329146607058e-11  2.2428720788650315e-11  2.6025278215854643e-11  2.3508397077421120e-11  1.9860366265412620e-11  2.4295679691728242e-11  2.5256415215151613e-11  2.4286808936690866e-11  2.2933190032343332e-11  2.4531112896107121e-11  2.4469666824086135e-11  2.4968629829524945e-11  2.0910168588697936e-11  2.2429051338131652e-11  2.6351783093192943e-11  2.4291818855803889e-11  2.5861345646639238e-11  2.5943894758782391e-11  2.5841406271714526e-11  2.6085123229443384e-11  2.6087699650903002e-11  2.0180034976458707e-11  1.9819915102629512e-11  2.4046610031834135e-11  2.3966903652046319e-11  2.4232114790899025e-11  2.4054885373272456e-11  2.6364663030797217e-11  2.2650594695778327e-11  2.0649879517557809e-11  2.5143102439560069e-11  2.1161285132203382e-11  2.0916489862951304e-11  2.0775276056653350e-11  2.2193881429849405e-11  2.1067086570973363e-11  2.4981701558317972e-11  2.1706128498308974e-11  2.3888499649853411e-11  2.0954476078122939e-11  2.0683476937169484e-11  2.6498235121107702e-11  2.6488614767911750e-11  2.1550096574474276e-11  2.4287813857785344e-11  2.0539844867212850e-11  2.6435153121538166e-11  2.1669125908783948e-11  2.0134985339539535e-11  2.5776059232688440e-11  2.5738441124150085e-11  2.3114080582923317e-11  2.1759964232760982e-11  2.3470057427100313e-11  2.5005932233053036e-11  1.9972568886769731e-11  2.6337903365456438e-11  2.1063039953804670e-11  2.1815338005727094e-11  2.5216983471106327e-11  2.1375174571681411e-11  2.6071913013926218e-11  2.3207949582314490e-11  2.1464636746803728e-11  2.1875199901307043e-11  2.2634241589637045e-11  2.1649379801397513e-11  2.2989682570452153e-11  2.3407864423220512e-11  2.4642324554881287e-11  2.2795278842749857e-11  2.2130566459200136e-11  2.0529897362808504e-11  2.0160075514535751e-11  2.1586958780130284e-11  2.4593783468963607e-11  2.0322310225936988e-11  2.0174525819419676e-11  2.4740661458089095e-11  1.9962715952118332e-11  1.9986949706812870e-11  1.9998236250177159e-11  2.0446414852875543e-11  2.0125314638344509e-11  2.0017169333414982e-11  2.3355283357242861e-11  2.0022637359458127e-11  1.9844431210048055e-11  2.2716017723166536e-11  2.3269063355617941e-11  1.9828961524869423e-11  1.9838081238733928e-11  1.9840580958189835e-11  2.5202362369044424e-11  2.4805619918875280e-11  2.4362065109848687e-11  1.9975845986909823e-11  2.5846811035209419e-11  2.5504118418894022e-11  2.2121933646751216e-11  2.2198510107657522e-11  2.0138445997770915e-11  2.6414103649823595e-11  2.1127192016751357e-11  1.9835093042606132e-11  2.6068598700838088e-11  2.3796230968009956e-11  2.6415290218265569e-11  2.6281891489487237e-11  1.9968805514931268e-11  1.9833731561823291e-11  1.9735479067179521e-11  1.9793155771335697e-11  2.3878349938440033e-11  1.9985729889288080e-11  2.6091413046649822e-11  1.9855503356716313e-11  1.9874522422961714e-11  1.9832292003332519e-11  2.2340783836739489e-11  2.1266283356383653e-11  2.3431505005269331e-11  2.0311330312872738e-11  2.3850629142593648e-11  2.0391387512294146e-11  2.5951166455689828e-11  2.5910135011676408e-11  2.6089944826780794e-11  2.0937089988556836e-11  2.6225778781513491e-11  2.5448558008715919e-11  2.6032832200442024e-11  2.1979527228556410e-11  2.4568532972455508e-11  2.5008822950260313e-11  2.1694977032193358e-11  2.3887524396358493e-11  2.3649152681010369e-11  2.3414968681657301e-11  2.4369359772484268e-11  2.5874222439354696e-11  2.6099697384979029e-11  2.0870381100097984e-11  2.2558858304298219e-11  2.2286880551329562e-11  2.1237169059827104e-11  2.5738580780365483e-11  2.0208696047862826e-11  2.3725617598090552e-11  2.1879630760814832e-11  2.4825031940791660e-11  2.5355850273961655e-11  2.3861801878644021e-11  2.2087692618314981e-11  2.3925189883895311e-11  2.5113807414107641e-11  2.4912183333269002e-11  2.2253621377872082e-11  2.0705963751554508e-11  2.5450936393714194e-11  2.1300332829447709e-11  2.1052589119416194e-11  2.3950193594703970e-11  2.3132062392683462e-11  2.5502717972701241e-11  2.2951259405848282e-11  2.5893263231517915e-11  2.0926454537761245e-11  2.3230010327497396e-11  2.3080374304476532e-11  2.1543342319389871e-11  2.2233091043436415e-11  2.2109382204072356e-11  2.1699800303754390e-11  2.1749610313878233e-11  2.1433104628740755e-11  2.4136456995334698e-11  2.1865040480480564e-11  2.2850855865879618e-11  2.4380845689305897e-11  2.2532869746435862e-11  2.2370692430156965e-11  2.0600127144800636e-11  2.3809412768574219e-11  2.2622850762861322e-11  2.2462247037544000e-11  2.1742362381094972e-11  2.2095905617104416e-11  2.3543423197515801e-11  2.3438738354726761e-11  2.3060463816948642e-11  2.4836340062075874e-11  2.1249897657060625e-11  2.1003475157596565e-11  2.0953004087698359e-11  2.1184567763028511e-11  2.1385121827384866e-11  2.0993373030778439e-11  2.0820242687528430e-11  2.3488727596422929e-11  2.3896189863083411e-11  2.0957162663178153e-11  2.0249677374407622e-11  2.1196174454389488e-11  2.3104409078461405e-11  2.4057720817937103e-11  2.4717903349654487e-11  2.3388783686857779e-11  2.1913559866546210e-11  2.5542878494373673e-11  2.4284555094945696e-11  2.0693156746391447e-11  2.5662287958635403e-11  2.2344261588115145e-11  2.1467668800084996e-11  2.1271759212387591e-11  2.0215179408979548e-11  2.1479401313165859e-11  2.0360873684605088e-11  2.4028308461548173e-11  2.3462215757119030e-11  2.4105473908005860e-11  2.4470685561740769e-11  2.2130360872266586e-11  2.1991435376600742e-11  2.2694168562161754e-11  2.0642386189049289e-11  2.4700504870454760e-11  2.3470587930767937e-11  2.4044620496415697e-11  2.4258713170589172e-11  2.0927643551176940e-11  2.0248729294927245e-11  2.2095720325850610e-11  2.0251710848509474e-11  2.2055290015843822e-11  2.0673818808553744e-11  2.0607404243744650e-11  2.1604712474219347e-11  2.3527519210832138e-11  2.0514459867077906e-11  2.1600278473787817e-11  2.2115069646331437e-11  2.0827858226099240e-11  2.1152419824880336e-11  2.1410173299800207e-11  2.0736137796981409e-11  2.44766611341