<?xml version="1.0"?>
<VTKFile type="UnstructuredGrid"  version="0.1"  >
<UnstructuredGrid>
<Piece  NumberOfPoints="6486" NumberOfCells="12696">
<Points>
<DataArray  type="Float64"  NumberOfComponents="3"  format="ascii">0 2.5 0  0 0 0  2.5 0 0  2.5 2.5 0  1.25 0 0  2.5 1.25 0  1.25 2.5 0  0 1.25 0  1.25 1.25 0  0 0.625 0  0.625 0 0  0.625 2.5 0  0 1.875 0  2.5 0.625 0  1.875 0 0  2.5 1.875 0  1.875 2.5 0  1.770833333333333 0.7291666666666666 0  0.7291666666666666 1.770833333333333 0  0.9375 0.625 0  1.875 1.5625 0  0.642361111111111 1.163194444444444 0  1.341594827586207 1.883979885057471 0  0.46875 0.46875 0  2.03125 2.03125 0  0.3626104797979798 1.513178661616162 0  1.381740196078431 0.4564950980392157 0  0.9375 2.172619047619047 0  2.172619047619047 0.9375 0  2.096354166666667 0.4036458333333332 0  0.4036458333333333 2.096354166666667 0  1.684027777777778 1.163194444444444 0  0.3418803418803419 0.8693910256410255 0  1.642742622813391 2.162164207604464 0  1.275619849389031 0.8465650753054845 0  0.9136284722222221 1.434461805555556 0  1.732437511238546 0.3406962303960658 0  0.9714402568595876 1.029779313093998 0  1.52281746031746 1.485615079365079 0  2.1875 1.71875 0  1.06819722569879 0.2997236128493951 0  2.136114211309524 1.303478422619048 0  0.3125 0 0  0 0.3125 0  2.5 2.1875 0  2.1875 2.5 0  0.3200021620376328 1.192323085056694 0  0.6738456129277992 0.8304377375553881 0  1.757891808928991 1.861952730357003 0  1.5625 0 0  0.9375 0 0  0.3125 2.5 0  2.1875 0 0  2.5 0.9375 0  0 0.9375 0  0 1.5625 0  0.9375 2.5 0  2.5 0.3125 0  0 2.1875 0  1.5625 2.5 0  2.5 1.5625 0  0.7448220909826522 0.3003573636608841 0  1.027298850574712 1.871151477832512 0  1.331260495098891 2.197262878816185 0  1.207917681892289 1.582765010956622 0  0.4339993447432606 1.801186844743261 0  0.6337298768939392 1.443093039772727 0  2.049851190476191 0.6826636904761904 0  0.6584821428571428 2.219122023809524 0  1.89575676467455 0.9798457973793544 0  1.437570562095628 1.059380588255917 0  1.502090052505845 0.6987070896496241 0  0.2040860661083546 1.705323965099331 0  0.2083333333333333 0.46875 0  0.5070952039991439 0.2211150679997147 0  0.6916302856529919 0.5813591430410241 0  2.265625 1.953125 0  2.2265625 2.2265625 0  1.886424081252096 2.243391360417365 0  1.40625 0.202164758520858 0  0.2269345238095238 0.2269345238095238 0  1.152730869673694 0.5225850378741401 0  1.885631899587912 1.312095130148776 0  1.614808884009367 0.9049784971014416 0  1.890095442220658 0.5126535558463003 0  2.323168682795699 0.46875 0  2.268811725689575 0.2304742875213018 0  0.6002389442105756 1.967426444210576 0  0.1768313172043011 2.03125 0  0.2311882743104251 2.269525712478698 0  2.03125 0.176831317204301 0  2.280262553344767 0.6954945504579233 0  1.979219539285994 1.809922269642997 0  2.336309523809524 1.09375 0  1.09375 2.336309523809524 0  0.9314042474388009 1.662973812215543 0  0.1634067999087722 1.40625 0  2.337090640094896 1.40625 0  1.141616997467638 2.069311773587991 0  0.46875 2.338939559681489 0  1.542440307908715 1.734944797244472 0  1.556713687786879 1.956977865354753 0  0.8264238995344066 1.975424467820646 0  1.466326331454725 1.275271369760862 0  1.655675324257095 0.5444159974393489 0  0.3385416666666666 0.6479255698005697 0  0 0.78125 0  0.5236073939200119 0.984090461540625 0  2.091665741047893 1.519793517904215 0  1.71875 2.5 0  0.5356538886262603 1.623137930505009 0  0 1.09375 0  0.1932884281517095 1.015625 0  0.8569313582417669 1.2198915584249 0  0.8876981284879677 0.8329884081524883 0  1.115618488474214 0.7219586973356271 0  1.186950366204949 1.043465130075318 0  2.057459118787237 1.110823087309335 0  1.830651283878689 2.049810069572418 0  1.689107969301489 1.367247437031697 0  0.4921048768039656 1.298643370653124 0  0.8213975694444444 2.336309523809524 0  2.03125 2.5 0  1.049729400480002 1.283723261332814 0  1.308101375801673 0.6489479469700392 0  2.5 2.34375 0  0.4968777175037714 0.7562964879736076 0  1.40625 2.5 0  1.501347663534097 2.307027627307738 0  1.602813712048603 0.1926218191360736 0  0.8393082906308107 0.463778306132633 0  1.682663349152719 1.598471865581041 0  0.7774174680851571 1.560004941327907 0  1.554204170364662 0.3898593897892066 0  1.842184459051087 0.186443880058197 0  1.358107417651776 1.696381759610015 0  1.18859291992392 1.77598670078022 0  0.1875331222687418 0.7609599743339348 0  1.339536743965101 1.422080365801479 0  0.7788179348750389 0.9955343414928611 0  0.9062978492805438 0.1919636509126373 0  1.256007360640958 0.3160320559396114 0  1.09375 0 0  1.174986727221844 0.1594990293443933 0  2.34375 1.796875 0  2.318026474511116 1.589177949022232 0  2.34375 2.5 0  1.672742954892153 2.332882724550692 0  0.2683637361947215 1.874801596909639 0  2.174770749820102 0.5581009131310781 0  1.443279522965991 0.8870068372898454 0  0.3385416666666667 0.3571428571428572 0  0.78125 0 0  2.060421048269335 2.314363248763811 0  1.088078737088509 0.8967352118723447 0  1.087825368444708 1.454931510884769 0  2.018308232129541 0.8548495425854904 0  1.943987311736842 0.3246298523011434 0  1.71875 0 0  1.85337849796276 1.144833312386208 0  2.3486328125 2.1044921875 0  1.407588788651747 2.042968789119587 0  2.336309523809524 0.865366648092144 0  2.34375 0 0  2.5 0.15625 0  0.15625 2.5 0  0 2.34375 0  0.1638044648294291 1.242263417405867 0  0.356216654757926 1.032569427322806 0  0.3188217956111817 1.355736727000647 0  0.5924956460852111 0.36112522004736 0  0.6594216488965849 0.1603472116132387 0  1.841804599497131 1.72214349266521 0  0.15625 0 0  0 0.15625 0  2.115898634821499 1.894570904464496 0  0.7821877980253907 0.7129993435924866 0  1.003820447087786 0.4516053462784233 0  0.477562948779147 1.138333049293613 0  0.719493678605015 1.305655360135975 0  0.9772457618587566 2.020350128938537 0  0.8764738248887107 1.826219722709673 0  1.254787875123819 2.339010653832026 0  2.343597354852534 1.249982759769001 0  0.78125 2.5 0  0.46875 2.5 0  2.5 1.40625 0  1.09375 2.5 0  2.5 0.78125 0  2.5 1.09375 0  2.03125 0 0  2.5 0.46875 0  1.40625 0 0  0.46875 0 0  0 0.46875 0  0 1.40625 0  0 1.71875 0  0 2.03125 0  2.5 1.71875 0  2.5 2.03125 0  2.005424054645407 1.653223486966518 0  0.1538730573856537 1.559850281736677 0  2.33984375 2.33984375 0  1.166539506212474 1.922878979538754 0  0.3914885633949916 1.65887232812171 0  0.5795503163042564 1.766243562569382 0  0.399533125920212 1.946786875081388 0  0.7866324979014098 2.127719094551316 0  0.3654683023546834 0.1495701132219454 0  0.1527388747131078 0.6116379440619215 0  2.013737577140188 1.391056634712135 0  1.17635437372994 2.213329084238133 0  1.737118141866284 1.010577140843115 0  2.200707118087222 1.164723314085963 0  1.697018908736685 1.993548551451517 0  0.5387621649009668 0.6070503962352419 0  2.032805785855952 0.5330427622570983 0  1.082699501358059 1.667818725183932 0  1.503819781540653 0.5468420196858188 0  2.015409142866072 2.175941657590429 0  1.752057611265444 0.869642097111018 0  0.612251684107783 2.356045720700959 0  1.902817102342857 0.6607642211999982 0  2.159616561739693 0.7867739969338844 0  0.5120038350106624 2.197302352398502 0  1.888200216011548 1.919501662489862 0  1.495909909726654 2.16028358757309 0  0.489139876703609 1.443203008943564 0  0.8819175670410521 0.3301172743913011 0  1.882591144370812 0.8155965192707721 0  1.133979796994841 1.172526771862882 0  2.206217447916667 2.084147135416667 0  2.20361328125 2.36279296875 0  1.395746985657004 1.556054166359645 0  1.704383111516207 1.734750450338683 0  0.9575737847222222 2.36274223823052 0  1.035150984253136 0.1302833343179028 0  1.383966125325753 0.7651479963479179 0  1.64003252158672 0.6824316405528895 0  2.22550785055421 1.487078576356817 0  1.760964431499756 1.48495222505201 0  1.276460980673788 2.004207003584658 0  0.1341477688427096 1.828777507920502 0  1.542261434180652 1.155296658359034 0  1.334627911613854 0.9696897472490321 0  1.30794231473696 1.119420615785191 0  0.7028260459857245 0.4438906910721139 0  1.625757433094055 1.84268057552138 0  0.9818707849053143 1.165603626132254 0  2.0086489901463 1.243134585689553 0  1.934584460420609 2.374094051915812 0  1.798434376789567 2.38671361912528 0  1.206314791201715 1.382064292497919 0  0.6333752893366955 0.7023738550008095 0  0.7796219811205605 1.42573253164258 0  1.564399711917382 1.026040828857629 0  0.3385416666666666 0.4889012896825397 0  0.1041666666666667 0.390625 0  0.989112246382566 1.543537365516289 0  2.025724425454636 0.9846960595520872 0  0.6602885475034063 2.086117390485779 0  1.607130551925032 1.267198646640915 0  0.1317864544877056 0.8896173683400176 0  1.755387840017567 2.230364320056445 0  1.301540702984401 0.1216289692748247 0  1.433170657577442 0.3331052752740999 0  1.500459610550388 0.113513924782439 0  0.6494291520606965 1.029586599619295 0  1.010146149868299 0.794897284196169 0  0.3700844198238017 2.235390157870766 0  0.3360891767780704 2.36656279435396 0  1.876856241037701 1.437150669863757 0  1.778674102957329 1.245979347269706 0  0.5472829890977179 0.1005517127039925 0  0.4669074189005698 0.3416784232954367 0  1.472765289289269 1.850899166481903 0  1.555853593327178 1.608452097912802 0  0.6708955559113426 1.646561631116984 0  0.8164699620322933 0.5924479455478063 0  0.3167738989468366 1.758696809749795 0  0.2788007305565096 1.605499483471246 0  0.7821720982350511 0.181524936294752 0  1.376812251214195 2.313340247908297 0  1.785652202614777 0.5962261755537186 0  1.761467296310972 0.4679567244718574 0  2.2265625 1.8359375 0  2.3828125 1.9140625 0  0.5279531607054191 2.071552361614785 0  2.397573269551114 0.234375 0  2.383578172599618 0.3589298466020009 0  0.1024267304488855 2.265625 0  0.1164218274003825 2.141070153397999 0  0.2696857594953064 2.135405441512016 0  2.164961300137334 0.1375322943529536 0  2.137757548369486 0.2724194778647587 0  2.238873711826398 0.3626419179496562 0  0.1001414910226386 0.234375 0  0.2176339285714286 0.3478422619047619 0  0.2503620791333544 0.1061694061057066 0  2.336445461915368 0.1250451055247424 0  0.2154004640409726 2.3918124
[...]
<PointData  Scalars="f_124-2"> 
<DataArray  type="Float64"  Name="f_124-2"  format="ascii">-2.3346888266354357e-11  -3.0746064329739471e-12  -1.6551488897726317e-12  -1.1997534403969509e-11  -2.7449827264753617e-12  -1.6203418333263001e-12  -2.3387075878298307e-11  -1.7899896427468189e-11  -1.1274691952101683e-11  -9.7918686218377010e-12  -3.0728248328542360e-12  -2.3372909914003934e-11  -2.2449151693065440e-11  -1.5812952922939915e-12  -2.2142911479107071e-12  -3.5173174303179049e-12  -2.1569138509857915e-11  -2.3308177778964875e-12  -2.1901733653903185e-11  -4.3179757768709966e-12  -6.6361972073536037e-12  -1.6909424066291059e-11  -2.1089558565814543e-11  -6.1360070375663127e-12  -1.2786400922562820e-11  -2.0220053038347435e-11  -2.6725285483687967e-12  -2.3279774236372051e-11  -1.9136904109182101e-12  -1.9798004262520489e-12  -2.3138040666479113e-11  -3.8433596520579362e-12  -1.3517002796832724e-11  -2.1230551440745578e-11  -4.0218045765980781e-12  -1.8957231038751298e-11  -2.3266252299389099e-12  -1.1054187709873126e-11  -1.1391029848799382e-11  -4.7098059034329362e-12  -2.8944562718052758e-12  -2.3689914522125789e-12  -3.1007899106191348e-12  -4.8755855810610881e-12  -7.3034043108019244e-12  -1.7575161615840645e-11  -1.7488213023325564e-11  -1.1105562963573031e-11  -1.4732665279113377e-11  -2.4828941793489454e-12  -2.9506920495660935e-12  -2.3338973261262191e-11  -1.9170899297438919e-12  -1.5702939965363822e-12  -1.4726139210370801e-11  -2.0539187222132436e-11  -2.3386153511968808e-11  -1.6141520891606193e-12  -2.3318701497317986e-11  -2.3107644788753173e-11  -1.9871285750364996e-12  -3.1507520583796115e-12  -2.2311011592305366e-11  -2.3104411253877608e-11  -1.8529940910966920e-11  -2.1999674213127412e-11  -1.9737463246592264e-11  -2.0196224832427127e-12  -2.3350830618729641e-11  -2.3119535269502573e-12  -4.8226768034137938e-12  -2.6594314381012469e-12  -2.1473054025698039e-11  -7.1698113638609416e-12  -3.2906382412037751e-12  -5.8601625926850252e-12  -6.8270503877263465e-12  -1.2606869776620989e-11  -1.9144638587997923e-11  -2.6225957707856462e-12  -3.8567017824915738e-12  -2.9559080549760921e-12  -3.5935477953558382e-12  -2.8229067915162970e-12  -2.1765368520635266e-12  -1.7430810444015977e-12  -1.8189509504507631e-12  -2.2735278792586205e-11  -2.2992625368005268e-11  -2.3402626900396477e-11  -2.0560200001395491e-12  -1.7810746528609569e-12  -9.3206995698014322e-12  -1.7444790600715749e-12  -2.3436510506874007e-11  -2.1169130248495346e-11  -1.9306737250166051e-11  -2.0372501949170060e-12  -2.2989714393494899e-11  -2.3423668689299394e-11  -1.6265884125630280e-11  -1.9779311047383191e-11  -2.2760975554674430e-11  -7.8121898461521860e-12  -2.4278609463830517e-12  -1.0062085349160645e-11  -1.2651996643409936e-11  -1.4909953282410620e-11  -3.6591208296997461e-12  -2.2576080634132862e-11  -2.1041174151402084e-11  -1.6430834607307761e-11  -1.5634395751811365e-11  -1.6390574000662100e-11  -8.0985741003573701e-12  -3.9717543440633837e-12  -7.9584733567079243e-12  -2.1754939191369696e-12  -1.6882709361796341e-11  -6.1250322413976002e-12  -1.8534628361961146e-11  -2.3433409794335542e-11  -1.9807537854154782e-11  -1.5362031274235071e-11  -2.9067619437216805e-12  -9.8300001725687490e-12  -1.1355716261728809e-11  -2.3320498705326358e-11  -2.2984451521759557e-11  -2.4487126785895784e-12  -3.5345414394002855e-12  -1.0604787352221197e-11  -2.0649646906653263e-11  -2.5078559377425451e-12  -2.2201920587453347e-12  -1.8421919196213699e-11  -2.1132311366297801e-11  -1.2063500568223690e-11  -1.3321476492407639e-11  -1.3136241548543767e-11  -2.9731962348044794e-12  -2.7584463616685067e-12  -2.8554762621387084e-12  -2.8158049506961256e-12  -3.9568920111398991e-12  -2.7266222042631003e-12  -1.4584755289902811e-11  -2.2256542637840395e-11  -2.2364271026158709e-11  -1.8856633974843093e-12  -3.3571839019353957e-12  -5.1805741980434283e-12  -3.0194510978026111e-12  -1.7379598378715185e-11  -6.5556164939293440e-12  -1.7851771225443326e-11  -2.0756456110595621e-12  -2.1270422303386203e-12  -2.3537939299370195e-12  -2.8100063106811114e-12  -8.0470069233944383e-12  -2.2074704655418881e-11  -1.7167800888243605e-12  -1.7852646161082586e-12  -1.6417997255554518e-12  -2.3345112516440830e-11  -2.3417720449091600e-11  -1.7942188849889643e-11  -1.5643992705802835e-11  -1.8973677095565824e-11  -3.8397463166029612e-12  -3.0811791126665330e-12  -1.0177071581262369e-11  -3.0723754015643307e-12  -3.3932615920800479e-12  -8.3954129248883247e-12  -7.1320100258533402e-12  -3.0833528704421527e-12  -1.6804958342220390e-11  -1.8338718389791349e-11  -2.2901134364042574e-11  -2.2167635298668127e-11  -2.3400029321212826e-11  -1.8146437771186404e-12  -2.3381120664499164e-11  -2.3347164480141061e-11  -1.7202721557088225e-12  -2.3393593346784323e-11  -1.5822336605348829e-12  -1.5845033145316697e-12  -2.0726682304147353e-12  -1.5913318862143282e-12  -2.6068361088404637e-12  -3.1037900480819787e-12  -7.1139575490907269e-12  -1.9255505937824941e-11  -2.1578137720671375e-11  -2.2967289345882864e-11  -2.5355626352151963e-12  -5.1563344152788687e-12  -6.0334419129006552e-12  -2.0531325720999962e-11  -1.2430176095045465e-11  -2.2319729922424527e-11  -2.1149563427080613e-11  -2.1872517096351397e-11  -2.2656028148919930e-11  -2.3190813866454531e-11  -3.2603206355679197e-12  -9.6182792240733098e-12  -3.3109662063142471e-12  -2.3296381852996265e-11  -2.7550477090404212e-12  -1.9702869064723328e-12  -1.8178149082881895e-11  -8.1357289006168928e-12  -2.0399733411277805e-12  -2.0656369987807126e-11  -2.5701716332592311e-12  -1.5851430773318550e-11  -2.4393197151255395e-12  -2.3430837915673941e-11  -2.1737444243924630e-12  -1.9092093834530097e-12  -2.3317116866999157e-11  -1.3360458841853196e-11  -2.2362933453120842e-11  -1.9748000442084509e-11  -3.0513467035123220e-12  -2.2091280963666314e-12  -1.1657837556459407e-11  -1.0357130021642633e-11  -1.5419740603954417e-11  -1.5160835813220647e-11  -1.3230009705721317e-11  -2.3443932740626556e-11  -2.9044845095398251e-12  -3.0459280651680244e-12  -2.4601982879147893e-12  -2.6930294681846683e-12  -7.0985746045275048e-12  -2.2436626024386483e-11  -2.2137934472973593e-11  -4.9211857112358587e-12  -4.7254899228154324e-12  -7.4271206045840434e-12  -4.0556039930405277e-12  -1.6772619831161539e-11  -1.3984574293766030e-11  -2.6398989003059646e-12  -2.0004560111500345e-11  -2.1645635130517648e-11  -1.4941317577072622e-11  -8.9871211055091925e-12  -1.9453723885401105e-11  -3.5844427553946191e-12  -7.2976318220703433e-12  -5.9036534941347129e-12  -1.9880674786966301e-11  -2.1033272003115463e-12  -2.3109360917052956e-11  -5.7001352808724663e-12  -1.4035053862862580e-11  -2.0776111128784724e-11  -2.7077962219966555e-12  -2.6135441136698290e-12  -2.5354724750725416e-12  -1.5071270684423995e-11  -5.8438946091214332e-12  -2.3366081588350772e-11  -2.3421686295824802e-11  -4.8012029502509502e-12  -3.8426818941520732e-12  -3.1006328117866237e-12  -4.2917544021848242e-12  -1.9281356501530250e-11  -1.3284536597572233e-11  -2.1250412559297802e-11  -4.9637276207349378e-12  -2.1768959132585911e-11  -2.0811167081172622e-11  -3.0342398304654975e-12  -2.3267507529112738e-11  -2.2968475578024062e-12  -2.3060510573699770e-12  -5.7376141727852774e-12  -4.7472899541970442e-12  -2.3059270956877490e-11  -1.6922545666177033e-12  -1.6989952860993851e-12  -2.3394034693515029e-11  -2.3226638419711396e-11  -2.3220500381480654e-11  -1.9283450820579973e-12  -1.9500681368168499e-12  -1.8501786535805948e-12  -3.8960106560394953e-12  -5.3357980349259311e-12  -3.1941688059840693e-12  -1.7650978793080994e-12  -2.3405695119451446e-11  -2.3343034901079659e-11  -3.2106078086537755e-12  -2.3435629402718106e-12  -3.4690951545320513e-12  -2.8490885717510114e-12  -2.7952860025919814e-12  -2.2824296227230389e-11  -8.8777231369876800e-12  -1.5759362372738815e-11  -2.2688093724559037e-11  -2.1525435588605754e-12  -1.6931759486917916e-12  -1.6721036664029653e-12  -9.5756740698610036e-12  -5.3122232496264217e-12  -2.2490906155609958e-11  -2.2445076277770027e-11  -2.7690164727487765e-12  -3.6406749422301440e-12  -8.4641896769877424e-12  -2.2252669705567857e-12  -1.3431534225935062e-11  -2.1441000405446886e-11  -2.1804451157861616e-11  -1.8968343620966830e-12  -2.9924232989607903e-12  -1.8843188718866145e-12  -2.3036212340602690e-11  -1.6977531088309885e-11  -1.6738184529576159e-12  -1.1220213373232009e-11  -1.8214997199011510e-11  -6.3930470478156539e-12  -1.1164680526327809e-11  -2.0892748628436382e-12  -2.3426360595479684e-11  -1.9763835287555923e-11  -1.8592897433456492e-11  -1.9782533839014169e-12  -2.0931263846699279e-12  -1.3567963127033720e-11  -2.4169839636867904e-12  -2.5096872482748781e-12  -1.6974170350664645e-11  -2.2767347329601776e-12  -2.4732469560803640e-12  -2.0483325049021373e-11  -6.7607630093708978e-12  -2.3426348511636517e-11  -1.7170770153912914e-11  -1.1893611769654992e-11  -8.3889003628419965e-12  -8.9753926178990677e-12  -2.4122357676961166e-12  -2.1061677831101437e-11  -1.7260133899823013e-11  -1.7505645450076160e-12  -1.6647548017688323e-12  -2.3377942122637942e-11  -2.3401778611954715e-11  -1.2207710856365781e-11  -4.9551180270455725e-12  -2.7738871409883596e-12  -2.6927545525413347e-12  -1.8081499066515955e-11  -2.5208950489536354e-12  -1.9237099069805254e-11  -2.3055426336043257e-11  -2.2582555502495636e-11  -1.0654426405414194e-11  -1.9853702353124970e-11  -3.8171900423615398e-12  -1.3424376928026828e-11  -1.6136366535534395e-11  -1.1112887822699346e-11  -5.7196211515252896e-12  -2.3212102305097577e-11  -1.3569285282310352e-11  -6.1013866033678959e-12  -9.4007160005082210e-12  -8.5324321789788836e-12  -2.1067720306224576e-12  -1.8242115791487943e-11  -2.1608314506555245e-11  -1.9409105151325592e-11  -2.2688874685716611e-11  -2.3163340237191685e-11  -1.7915447732985688e-12  -2.0212115672064783e-11  -2.7704865442547919e-12  -3.2394822679136886e-12  -2.3363672765298957e-11  -1.4200087608934482e-11  -1.0745519569816149e-11  -9.2364037580641517e-12  -1.1119477245411068e-11  -2.4195724329109402e-12  -3.5238812597421375e-12  -1.7529979795346590e-11  -7.7889451338161094e-12  -1.5349251000202757e-11  -2.3147964811104670e-12  -2.0106501892748164e-12  -1.6194246155551078e-11  -2.2230481946933440e-12  -2.2904057355347543e-11  -2.0621101422924705e-11  -1.2354807739515479e-11  -1.7068767995074665e-12  -3.1338570061926206e-12  -3.4920971118114945e-12  -4.5732322694080595e-12  -1.8825834157328761e-12  -2.1514858787028834e-11  -2.0526003408301015e-11  -4.8310719264578406e-12  -9.8778719295859355e-12  -1.6189585462861546e-11  -2.3355744774121991e-11  -1.3472249426426993e-11  -2.1052018209469305e-11  -1.1515945607228463e-11  -2.2350192253934202e-11  -1.9124179110677422e-11  -1.7824580296457774e-11  -2.2300541025335268e-11  -1.0296263873811922e-11  -1.5933313225412161e-11  -1.4509715853645964e-11  -3.0459397987035024e-12  -1.7155408178142571e-11  -2.3422984896200946e-11  -2.3418292086173361e-11  -2.0435427301802989e-12  -2.7466465779308046e-12  -2.2870504686530267e-11  -2.6220011316745246e-12  -2.1564960512612832e-11  -3.0377681277921599e-12  -1.7947845402208850e-12  -2.1639039399967828e-11  -8.7397923192023032e-12  -2.2502857325929752e-12  -1.4904205326353311e-11  -1.2420117674691998e-11  -1.3561977731883240e-11  -2.7680979474220382e-12  -2.9526272272546190e-12  -1.8521311189024732e-12  -2.0114437430522646e-11  -1.6457573641931810e-11  -2.2970029438261575e-11  -6.3806668610833231e-12  -1.8296789073000403e-12  -2.3386728165687405e-11  -4.5125934478775073e-12  -1.1451892153334931e-11  -1.5978558941644419e-11  -1.2779976295919786e-11  -1.8305607531992267e-11  -2.5081666440700216e-12  -1.8259071166105842e-11  -1.9887649794636646e-12  -2.0225277272326350e-12  -1.9155206852059575e-11  -2.3409289345543993e-11  -1.4705926228359135e-11  -2.4935816566103990e-12  -1.0473960094225978e-11  -2.1329543056944743e-12  -3.3540176782225936e-12  -3.8210407937838420e-12  -2.8245950791443929e-12  -2.6934183009555886e-12  -2.6843533682835252e-12  -2.0380376594446800e-11  -2.1574757258919657e-11  -1.7845169462965843e-11  -3.1523693580534178e-12  -2.3342537503655245e-11  -1.8415455174497411e-11  -1.5111227704385099e-11  -2.3407865822233971e-11  -1.7447720713948751e-11  -2.2911500465825044e-11  -4.4106174239436776e-12  -2.8737148228309796e-12  -1.7216554922650423e-11  -2.3216609641138919e-11  -2.0277531318982648e-11  -2.5894121687417684e-12  -4.9102330545497037e-12  -3.2724367910296171e-12  -1.5751707691794171e-12  -2.3150002645160147e-12  -2.8973993525557249e-12  -1.9055011511540519e-11  -2.2527615857458527e-11  -1.1911979793978648e-11  -2.0860476942936140e-12  -3.8274458833183935e-12  -9.2538171816840130e-12  -3.1061720119624342e-12  -1.5816602092461361e-12  -1.6548732736721811e-12  -2.3432175517147447e-11  -2.9485701904060551e-12  -2.2189027149698104e-11  -2.1966529551992676e-11  -2.4373504967042440e-12  -1.9107405819925237e-11  -2.9706679650751344e-12  -2.2758088107713623e-11  -3.4103758380806754e-12  -1.5739661341621519e-11  -2.4331866810967744e-12  -2.2048931041931195e-11  -2.2799591387714925e-11  -2.3398474887339509e-11  -2.3408161038589990e-11  -2.8528853128655473e-12  -3.0358992598407262e-12  -8.8095613039718420e-12  -1.7605317365240729e-12  -2.3329263075324352e-11  -2.2433189256704559e-11  -3.0276062809312761e-12  -2.5689943842568999e-12  -7.6354706954403526e-12  -2.2968715503060747e-11  -6.4875435147961727e-12  -1.9615076478859586e-12  -2.7728224075230910e-12  -1.5830334695463202e-12  -2.0137597609039501e-12  -2.0121555486897803e-12  -2.1618757246672355e-12  -3.6390394865482995e-12  -5.2615596298730270e-12  -2.9739961126413811e-12  -1.6514082368042382e-12  -2.3212630511752592e-11  -1.9549994534066001e-12  -1.6583839700523908e-11  -1.6610759770592657e-11  -3.0065645293741608e-12  -2.1902166432551748e-11  -2.2362533876605862e-11  -4.6098748746894595e-12  -7.5866692985473655e-12  -1.0306758338756175e-11  -3.8145411105816880e-12  -4.0226313446115288e-12  -1.7711328452059996e-12  -2.3315457629623704e-11  -2.1732882703171713e-11  -3.1226581396523854e-12  -7.9910598654549707e-12  -2.3425392448060385e-11  -1.8460630187833419e-12  -4.5486113350509895e-12  -6.2534468295414174e-12  -5.5391029888858416e-12  -2.2061844523436874e-11  -1.6921652123014527e-12  -8.5179402280537837e-12  -1.3815677658744425e-11  -1.6457329933905834e-12  -2.3419609839351059e-11  -2.5294195639207599e-12  -2.3822073562836431e-12  -2.2531270945584013e-11  -1.0209307658978082e-11  -1.3771838883804786e-11  -2.0752688874377803e-11  -6.1817926749250125e-12  -1.2950731559544503e-11  -2.0367920328759837e-11  -1.9580442515686106e-11  -1.9470350875354736e-12  -1.6324619356375386e-12  -2.1936705614407453e-11  -1.7028275815113425e-11  -3.1290336507464781e-12  -2.5826789817299539e-12  -4.2063045417242722e-12  -1.2533958408309978e-11  -1.5195320724436091e-11  -1.8998319551273499e-11  -1.5198181607878140e-11  -1.8341986104621979e-11  -6.4213761060963009e-12  -2.9626992973392272e-12  -2.3043952708238238e-12  -2.2631438550172549e-12  -3.6715779420739586e-12  -1.8956260255948000e-11  -3.4900295583852126e-12  -3.0772885278630592e-12  -3.1223038002935194e-12  -4.9154938726102065e-12  -3.5832615048024857e-12  -1.6478554881154588e-12  -1.5769992209711676e-12  -1.5340855102842617e-11  -1.8786444336952080e-11  -5.5556785511462175e-12  -1.9625575824862160e-11  -4.8664351107036311e-12  -1.2758474569926130e-11  -1.8186049159909150e-12  -2.9096682248196442e-12  -7.3276860354238554e-12  -1.8192530151501127e-12  -8.4271293771406238e-12  -2.1809175571568661e-11  -1.5670049707422417e-11  -5.2743906187416206e-12  -8.1858178093689440e-12  -2.8649753578673927e-12  -2.3303153601951000e-11  -2.3426016553129809e-11  -3.0740893781273751e-12  -3.0905855175454939e-12  -1.0503702483536085e-11  -2.6749256336545126e-12  -1.1664318034783680e-11  -3.5279896705526336e-12  -2.3194720139604765e-11  -1.6398285822439608e-12  -7.1337022456218537e-12  -8.9516579883574291e-12  -2.6605056393927838e-12  -4.7347219902850309e-12  -2.0926607958383386e-11  -2.9138448577895760e-12  -2.0825740747995233e-11  -3.1296825281459212e-12  -1.8857755207578328e-12  -2.0395557175139426e-12  -2.9284273783718297e-12  -2.0266508859038833e-12  -8.8122716751841367e-12  -2.1363903169002688e-11  -2.3251462444321696e-11  -2.3003042344803630e-11  -2.2275098532880876e-11  -1.4843612492633803e-11  -2.3445666381445753e-12  -1.1367873112460077e-11  -1.5566935530063003e-11  -1.9917434221308263e-11  -4.2214709974450406e-12  -1.8990780416712470e-12  -1.6976290470707935e-12  -2.3193964907740343e-11  -1.7917429993606941e-11  -2.3321246230020681e-11  -2.1543543673840779e-12  -2.7996150679187892e-12  -1.6154148189287592e-11  -2.3384504010224485e-11  -1.8771779038468800e-11  -2.3390781143624747e-11  -2.3349885632705539e-11  -2.3360978344651125e-11  -2.1064564817557705e-11  -2.3380230036878524e-11  -2.2302505304496941e-12  -2.2754163110926688e-12  -2.4211574852686188e-12  -1.5959042720619109e-12  -1.6558467226498942e-12  -1.8293130002273718e-12  -1.5622621445931870e-11  -1.7215708652100153e-11  -1.8553789994438064e-11  -2.3393738154491808e-11  -1.1108207937410667e-11  -2.9865329470511483e-12  -2.1458743972220288e-12  -2.2709817182804643e-11  -2.3339825729605728e-11  -3.0873858368434188e-12  -2.3401581258432658e-11  -1.6262180421050934e-12  -3.0941492957466087e-12  -2.5519767196697054e-12  -4.0121483981569684e-12  -5.9108967068725262e-12  -2.2121468969498007e-11  -8.5272846874072058e-12  -1.1145692803306793e-11  -1.3087055571837171e-11  -1.9978587960524057e-11  -2.3232978402961239e-11  -8.4969751111671273e-12  -2.9365203393134872e-12  -6.1237497902996299e-12  -1.6019328029216458e-12  -2.1848976140492252e-12  -2.3219933414227709e-11  -2.0587505025612495e-11  -2.3416162404794258e-11  -2.6307940626607892e-12  -2.3413035111037769e-11  -6.3986901832451241e-12  -9.7960926485656874e-12  -7.2349745572702217e-12  -4.5192751889684570e-12  -3.1101050491060608e-12  -1.1328265806697436e-11  -9.2247822002100694e-12  -2.2922600559741147e-11  -1.7556972699923537e-11  -3.1312183935160902e-12  -2.3108752474478213e-11  -1.9860099935332263e-11  -2.0482068620160891e-11  -2.0941772304034059e-11  -1.8695989362272812e-11  -1.0834765381120209e-11  -8.4638234583269083e-12  -1.8603631401382309e-12  -1.8576434411074903e-11  -2.2642956456719800e-11  -2.1144929742453987e-12  -1.0769623577719135e-11  -1.8594135139774036e-12  -2.0331041653560141e-11  -2.2975332909129303e-11  -1.2851137517556064e-11  -1.4605765127287548e-11  -1.3514280677246466e-11  -2.2835720950305245e-11  -2.6147168657965561e-12  -1.4939330870533426e-11  -1.4634601426112168e-11  -2.1500635059282781e-12  -1.7729430129245539e-12  -1.3761080594483518e-11  -1.9222655411841206e-12  -1.8447360323034149e-12  -1.9696357032840758e-11  -3.2065662953510556e-12  -5.2322859152395594e-12  -4.7446099126287424e-12  -5.0459711410971007e-12  -3.3686758315123794e-12  -2.1389907381880028e-11  -2.1701638439590967e-11  -2.1642990960926906e-11  -3.7582063290801438e-12  -3.1042893052627346e-12  -3.3494557698612827e-12  -2.7342032704118720e-12  -2.3238915391649327e-11  -1.9252624184869329e-11  -2.2821506370773860e-11  -2.1929689884645403e-11  -3.3693404716135587e-12  -2.2342643693608377e-11  -2.2507470928789716e-11  -2.3218133663804855e-11  -3.9064728592842029e-12  -2.2634487968271340e-12  -2.2048099162747080e-12  -2.3057913146527555e-11  -2.2710354469634729e-11  -2.0718105081368757e-11  -2.0977338994613959e-11  -2.1589614162149850e-11  -7.5165731880697852e-12  -1.9115494204094117e-12  -2.3384206181563678e-11  -2.3367898547871496e-11  -2.3342725540814106e-11  -2.3290350996030163e-11  -2.3384723181521134e-11  -2.2570538529805980e-11  -9.2502173440865664e-12  -2.5869031177985030e-12  -2.9611227353689571e-12  -1.6530341830724213e-12  -2.3553298079729448e-12  -2.1334394715487674e-11  -1.9612548059803040e-11  -1.7668448982796816e-11  -6.7675938255266766e-12  -2.0867093755711797e-12  -7.5985733026562743e-12  -2.6825363277489456e-12  -2.1721210493570472e-11  -1.2324191174475560e-11  -2.1746632072457873e-12  -1.394513