<?xml version="1.0"?>
<VTKFile type="UnstructuredGrid"  version="0.1"  >
<UnstructuredGrid>
<Piece  NumberOfPoints="6486" NumberOfCells="12696">
<Points>
<DataArray  type="Float64"  NumberOfComponents="3"  format="ascii">0 2.5 0  0 0 0  2.5 0 0  2.5 2.5 0  1.25 0 0  2.5 1.25 0  1.25 2.5 0  0 1.25 0  1.25 1.25 0  0 0.625 0  0.625 0 0  0.625 2.5 0  0 1.875 0  2.5 0.625 0  1.875 0 0  2.5 1.875 0  1.875 2.5 0  1.770833333333333 0.7291666666666666 0  0.7291666666666666 1.770833333333333 0  0.9375 0.625 0  1.875 1.5625 0  0.642361111111111 1.163194444444444 0  1.341594827586207 1.883979885057471 0  0.46875 0.46875 0  2.03125 2.03125 0  0.3626104797979798 1.513178661616162 0  1.381740196078431 0.4564950980392157 0  0.9375 2.172619047619047 0  2.172619047619047 0.9375 0  2.096354166666667 0.4036458333333332 0  0.4036458333333333 2.096354166666667 0  1.684027777777778 1.163194444444444 0  0.3418803418803419 0.8693910256410255 0  1.642742622813391 2.162164207604464 0  1.275619849389031 0.8465650753054845 0  0.9136284722222221 1.434461805555556 0  1.732437511238546 0.3406962303960658 0  0.9714402568595876 1.029779313093998 0  1.52281746031746 1.485615079365079 0  2.1875 1.71875 0  1.06819722569879 0.2997236128493951 0  2.136114211309524 1.303478422619048 0  0.3125 0 0  0 0.3125 0  2.5 2.1875 0  2.1875 2.5 0  0.3200021620376328 1.192323085056694 0  0.6738456129277992 0.8304377375553881 0  1.757891808928991 1.861952730357003 0  1.5625 0 0  0.9375 0 0  0.3125 2.5 0  2.1875 0 0  2.5 0.9375 0  0 0.9375 0  0 1.5625 0  0.9375 2.5 0  2.5 0.3125 0  0 2.1875 0  1.5625 2.5 0  2.5 1.5625 0  0.7448220909826522 0.3003573636608841 0  1.027298850574712 1.871151477832512 0  1.331260495098891 2.197262878816185 0  1.207917681892289 1.582765010956622 0  0.4339993447432606 1.801186844743261 0  0.6337298768939392 1.443093039772727 0  2.049851190476191 0.6826636904761904 0  0.6584821428571428 2.219122023809524 0  1.89575676467455 0.9798457973793544 0  1.437570562095628 1.059380588255917 0  1.502090052505845 0.6987070896496241 0  0.2040860661083546 1.705323965099331 0  0.2083333333333333 0.46875 0  0.5070952039991439 0.2211150679997147 0  0.6916302856529919 0.5813591430410241 0  2.265625 1.953125 0  2.2265625 2.2265625 0  1.886424081252096 2.243391360417365 0  1.40625 0.202164758520858 0  0.2269345238095238 0.2269345238095238 0  1.152730869673694 0.5225850378741401 0  1.885631899587912 1.312095130148776 0  1.614808884009367 0.9049784971014416 0  1.890095442220658 0.5126535558463003 0  2.323168682795699 0.46875 0  2.268811725689575 0.2304742875213018 0  0.6002389442105756 1.967426444210576 0  0.1768313172043011 2.03125 0  0.2311882743104251 2.269525712478698 0  2.03125 0.176831317204301 0  2.280262553344767 0.6954945504579233 0  1.979219539285994 1.809922269642997 0  2.336309523809524 1.09375 0  1.09375 2.336309523809524 0  0.9314042474388009 1.662973812215543 0  0.1634067999087722 1.40625 0  2.337090640094896 1.40625 0  1.141616997467638 2.069311773587991 0  0.46875 2.338939559681489 0  1.542440307908715 1.734944797244472 0  1.556713687786879 1.956977865354753 0  0.8264238995344066 1.975424467820646 0  1.466326331454725 1.275271369760862 0  1.655675324257095 0.5444159974393489 0  0.3385416666666666 0.6479255698005697 0  0 0.78125 0  0.5236073939200119 0.984090461540625 0  2.091665741047893 1.519793517904215 0  1.71875 2.5 0  0.5356538886262603 1.623137930505009 0  0 1.09375 0  0.1932884281517095 1.015625 0  0.8569313582417669 1.2198915584249 0  0.8876981284879677 0.8329884081524883 0  1.115618488474214 0.7219586973356271 0  1.186950366204949 1.043465130075318 0  2.057459118787237 1.110823087309335 0  1.830651283878689 2.049810069572418 0  1.689107969301489 1.367247437031697 0  0.4921048768039656 1.298643370653124 0  0.8213975694444444 2.336309523809524 0  2.03125 2.5 0  1.049729400480002 1.283723261332814 0  1.308101375801673 0.6489479469700392 0  2.5 2.34375 0  0.4968777175037714 0.7562964879736076 0  1.40625 2.5 0  1.501347663534097 2.307027627307738 0  1.602813712048603 0.1926218191360736 0  0.8393082906308107 0.463778306132633 0  1.682663349152719 1.598471865581041 0  0.7774174680851571 1.560004941327907 0  1.554204170364662 0.3898593897892066 0  1.842184459051087 0.186443880058197 0  1.358107417651776 1.696381759610015 0  1.18859291992392 1.77598670078022 0  0.1875331222687418 0.7609599743339348 0  1.339536743965101 1.422080365801479 0  0.7788179348750389 0.9955343414928611 0  0.9062978492805438 0.1919636509126373 0  1.256007360640958 0.3160320559396114 0  1.09375 0 0  1.174986727221844 0.1594990293443933 0  2.34375 1.796875 0  2.318026474511116 1.589177949022232 0  2.34375 2.5 0  1.672742954892153 2.332882724550692 0  0.2683637361947215 1.874801596909639 0  2.174770749820102 0.5581009131310781 0  1.443279522965991 0.8870068372898454 0  0.3385416666666667 0.3571428571428572 0  0.78125 0 0  2.060421048269335 2.314363248763811 0  1.088078737088509 0.8967352118723447 0  1.087825368444708 1.454931510884769 0  2.018308232129541 0.8548495425854904 0  1.943987311736842 0.3246298523011434 0  1.71875 0 0  1.85337849796276 1.144833312386208 0  2.3486328125 2.1044921875 0  1.407588788651747 2.042968789119587 0  2.336309523809524 0.865366648092144 0  2.34375 0 0  2.5 0.15625 0  0.15625 2.5 0  0 2.34375 0  0.1638044648294291 1.242263417405867 0  0.356216654757926 1.032569427322806 0  0.3188217956111817 1.355736727000647 0  0.5924956460852111 0.36112522004736 0  0.6594216488965849 0.1603472116132387 0  1.841804599497131 1.72214349266521 0  0.15625 0 0  0 0.15625 0  2.115898634821499 1.894570904464496 0  0.7821877980253907 0.7129993435924866 0  1.003820447087786 0.4516053462784233 0  0.477562948779147 1.138333049293613 0  0.719493678605015 1.305655360135975 0  0.9772457618587566 2.020350128938537 0  0.8764738248887107 1.826219722709673 0  1.254787875123819 2.339010653832026 0  2.343597354852534 1.249982759769001 0  0.78125 2.5 0  0.46875 2.5 0  2.5 1.40625 0  1.09375 2.5 0  2.5 0.78125 0  2.5 1.09375 0  2.03125 0 0  2.5 0.46875 0  1.40625 0 0  0.46875 0 0  0 0.46875 0  0 1.40625 0  0 1.71875 0  0 2.03125 0  2.5 1.71875 0  2.5 2.03125 0  2.005424054645407 1.653223486966518 0  0.1538730573856537 1.559850281736677 0  2.33984375 2.33984375 0  1.166539506212474 1.922878979538754 0  0.3914885633949916 1.65887232812171 0  0.5795503163042564 1.766243562569382 0  0.399533125920212 1.946786875081388 0  0.7866324979014098 2.127719094551316 0  0.3654683023546834 0.1495701132219454 0  0.1527388747131078 0.6116379440619215 0  2.013737577140188 1.391056634712135 0  1.17635437372994 2.213329084238133 0  1.737118141866284 1.010577140843115 0  2.200707118087222 1.164723314085963 0  1.697018908736685 1.993548551451517 0  0.5387621649009668 0.6070503962352419 0  2.032805785855952 0.5330427622570983 0  1.082699501358059 1.667818725183932 0  1.503819781540653 0.5468420196858188 0  2.015409142866072 2.175941657590429 0  1.752057611265444 0.869642097111018 0  0.612251684107783 2.356045720700959 0  1.902817102342857 0.6607642211999982 0  2.159616561739693 0.7867739969338844 0  0.5120038350106624 2.197302352398502 0  1.888200216011548 1.919501662489862 0  1.495909909726654 2.16028358757309 0  0.489139876703609 1.443203008943564 0  0.8819175670410521 0.3301172743913011 0  1.882591144370812 0.8155965192707721 0  1.133979796994841 1.172526771862882 0  2.206217447916667 2.084147135416667 0  2.20361328125 2.36279296875 0  1.395746985657004 1.556054166359645 0  1.704383111516207 1.734750450338683 0  0.9575737847222222 2.36274223823052 0  1.035150984253136 0.1302833343179028 0  1.383966125325753 0.7651479963479179 0  1.64003252158672 0.6824316405528895 0  2.22550785055421 1.487078576356817 0  1.760964431499756 1.48495222505201 0  1.276460980673788 2.004207003584658 0  0.1341477688427096 1.828777507920502 0  1.542261434180652 1.155296658359034 0  1.334627911613854 0.9696897472490321 0  1.30794231473696 1.119420615785191 0  0.7028260459857245 0.4438906910721139 0  1.625757433094055 1.84268057552138 0  0.9818707849053143 1.165603626132254 0  2.0086489901463 1.243134585689553 0  1.934584460420609 2.374094051915812 0  1.798434376789567 2.38671361912528 0  1.206314791201715 1.382064292497919 0  0.6333752893366955 0.7023738550008095 0  0.7796219811205605 1.42573253164258 0  1.564399711917382 1.026040828857629 0  0.3385416666666666 0.4889012896825397 0  0.1041666666666667 0.390625 0  0.989112246382566 1.543537365516289 0  2.025724425454636 0.9846960595520872 0  0.6602885475034063 2.086117390485779 0  1.607130551925032 1.267198646640915 0  0.1317864544877056 0.8896173683400176 0  1.755387840017567 2.230364320056445 0  1.301540702984401 0.1216289692748247 0  1.433170657577442 0.3331052752740999 0  1.500459610550388 0.113513924782439 0  0.6494291520606965 1.029586599619295 0  1.010146149868299 0.794897284196169 0  0.3700844198238017 2.235390157870766 0  0.3360891767780704 2.36656279435396 0  1.876856241037701 1.437150669863757 0  1.778674102957329 1.245979347269706 0  0.5472829890977179 0.1005517127039925 0  0.4669074189005698 0.3416784232954367 0  1.472765289289269 1.850899166481903 0  1.555853593327178 1.608452097912802 0  0.6708955559113426 1.646561631116984 0  0.8164699620322933 0.5924479455478063 0  0.3167738989468366 1.758696809749795 0  0.2788007305565096 1.605499483471246 0  0.7821720982350511 0.181524936294752 0  1.376812251214195 2.313340247908297 0  1.785652202614777 0.5962261755537186 0  1.761467296310972 0.4679567244718574 0  2.2265625 1.8359375 0  2.3828125 1.9140625 0  0.5279531607054191 2.071552361614785 0  2.397573269551114 0.234375 0  2.383578172599618 0.3589298466020009 0  0.1024267304488855 2.265625 0  0.1164218274003825 2.141070153397999 0  0.2696857594953064 2.135405441512016 0  2.164961300137334 0.1375322943529536 0  2.137757548369486 0.2724194778647587 0  2.238873711826398 0.3626419179496562 0  0.1001414910226386 0.234375 0  0.2176339285714286 0.3478422619047619 0  0.2503620791333544 0.1061694061057066 0  2.336445461915368 0.1250451055247424 0  0.2154004640409726 2.3918124
[...]
<PointData  Scalars="f_124-2"> 
<DataArray  type="Float64"  Name="f_124-2"  format="ascii">-2.4325050744844419e-39  -4.8849655284219571e-16  -1.0132896401546481e-44  -3.5634006547986221e-50  -6.4680054926346373e-25  -2.2155696322299801e-42  -1.9454084055836323e-40  -2.3754738280372285e-20  -8.5105965722048223e-25  -1.8011878428641883e-14  -2.0466871451092400e-17  -1.9751364832652856e-39  -2.6896404225422743e-29  -2.1487025362892765e-44  -1.3124817727461494e-34  -4.5645467801324634e-45  -2.4590997047091547e-44  -1.9064946520743053e-30  -6.4172400878249380e-28  -1.8658649954625868e-18  -2.7995852528858750e-34  -5.9710171847248434e-20  -3.0160055275972099e-32  -1.6711433743001092e-14  -2.5381478173942291e-40  -5.9068543946970311e-24  -5.0307981576154338e-25  -1.6869874303664140e-34  -6.9197234498542385e-37  -4.5485363983530608e-38  -5.7075514659608408e-33  -1.7833293676764878e-29  -2.8010795953322992e-16  -4.0257995058092248e-38  -7.7056704325617782e-23  -3.7451685410160873e-24  -7.4033016130162144e-32  -1.4635590787833556e-20  -1.6534426047425253e-29  -1.3225228607973105e-39  -2.5477503267433728e-21  -1.2884639501640704e-36  -8.9185004164640268e-16  -5.3078777765744320e-14  -2.6444918410946483e-47  -2.8236567980145137e-47  -1.1748573660795771e-19  -4.5683202437297218e-17  -9.1468196724073128e-36  -1.0236147487089992e-29  -9.3096046728629482e-21  -7.8434748885319089e-40  -7.1162842869492943e-40  -6.3651780996723177e-43  -5.1368350280964211e-17  -2.0191134489036772e-24  -6.7775815010499184e-40  -2.3306120175806185e-45  -2.5863247599166024e-34  -4.1359634279848291e-42  -2.9989772527590583e-43  -3.6424201594350626e-17  -2.3292745093142141e-30  -1.4677357160989877e-36  -8.7822797685365384e-28  -3.4835148924387422e-28  -3.8161173988721129e-23  -1.2765713382224369e-35  -4.4226693959216631e-35  -3.1905443707287044e-32  -1.4940691193600970e-25  -4.8242709556900482e-26  -1.1625109675868965e-26  -5.7283210177071732e-14  -2.0626411965190003e-15  -5.1478001732069926e-16  -1.8535840404799797e-42  -1.3853439536039513e-44  -2.2430062370895401e-41  -4.1150888312907036e-27  -3.1401260804795092e-14  -2.4780319125850926e-21  -5.3332286494917549e-33  -9.1463397993031506e-28  -9.6421745066083811e-34  -3.0619415495743617e-42  -1.5083521248145624e-41  -7.7177879536648342e-31  -8.3640354415388842e-32  -4.3220491262519386e-36  -2.1188743692163903e-37  -7.4834494604628667e-40  -1.2279622988592013e-37  -1.1215363418813719e-39  -1.6415653373287204e-37  -3.7648392730709422e-27  -1.9312053338469744e-22  -3.7317535397805962e-40  -9.8612117746438804e-34  -7.5764042875408757e-37  -3.0458795452803944e-32  -6.0066677662670986e-35  -3.0399108283123369e-31  -3.0563853922895720e-27  -3.9255189592366589e-29  -1.0763970514739564e-14  -1.3519901714567783e-15  -9.4141466931552746e-18  -4.3341462202800108e-37  -4.5650124890725955e-43  -1.4269868608552106e-25  -1.2300214766414183e-18  -1.0270799417680134e-17  -1.6161012841708382e-21  -1.2880085203000257e-18  -1.2812760758929505e-20  -1.0034998797003236e-22  -4.6947498857837218e-35  -1.4756518638444055e-38  -1.2313194719401395e-30  -4.9095905626622869e-21  -4.0780787252986975e-37  -9.5620346708646976e-46  -1.4388087107387707e-23  -2.9345374314746060e-23  -9.4672786052224029e-49  -9.7781803362150436e-16  -3.2377591618720451e-41  -4.2485288521018542e-39  -3.2204279193531679e-30  -1.6884318420864340e-17  -2.6247922386873455e-32  -3.2645816483284501e-25  -2.2809812324123833e-28  -2.6489346713976173e-34  -3.4135766336383383e-30  -6.2851527657321097e-30  -2.3972067252156871e-15  -3.8273300540879883e-27  -7.0923168914108210e-19  -6.4333419003966228e-20  -5.5221351676122774e-24  -9.1386092689708806e-23  -1.4307108591566497e-23  -2.4854101086983631e-42  -9.4453767435368791e-41  -9.5667628314246264e-49  -1.3419087691124012e-40  -2.8046596353650825e-29  -8.7312126864707079e-39  -3.1456788468526025e-25  -4.6249459408007305e-14  -5.5934152882304427e-19  -6.1348704355723008e-44  -7.2919150508726534e-21  -1.6403875132737520e-25  -2.0364638170608020e-34  -1.2972275670124826e-35  -4.5213199903267560e-32  -5.9733302454442744e-32  -8.1276409598382264e-45  -6.4365468901604537e-35  -4.1882842455208818e-40  -2.7764114761608902e-42  -4.4562619666957487e-45  -1.8119450877963312e-39  -4.7376421788879835e-37  -2.1955722077106952e-20  -7.1690881005559112e-18  -9.3195324138779526e-22  -1.8838276903581643e-15  -2.6043710327442570e-17  -2.8071343718234235e-35  -3.5746340929117226e-16  -1.3497639331416444e-14  -3.6840422949999491e-40  -3.2455153866439529e-17  -1.6365039784948790e-19  -3.8401375896918871e-19  -7.7539175443581348e-22  -3.0398736958792687e-32  -3.9212836075968021e-29  -3.6187422511753274e-38  -6.1255678120440568e-40  -8.7612902798048902e-40  -1.7422247079672829e-39  -1.2971381177433355e-42  -4.8403933949587333e-40  -1.7054269217700702e-43  -1.9335824310496521e-42  -3.6901279515971220e-37  -1.8771860621563068e-45  -1.8554010911149159e-27  -2.9473041093791690e-16  -5.7383579965951593e-14  -3.0446139439486065e-22  -8.5117875608212289e-27  -1.1888647328278861e-31  -4.7406308241892728e-44  -4.1531140470124723e-46  -1.0765214853165878e-36  -1.4735425601119260e-24  -6.0952249871716920e-47  -8.2767052515302463e-32  -5.4701592922497238e-26  -9.2144116890526207e-28  -1.6824561013596759e-30  -1.2875738884395164e-33  -5.2028469062595777e-15  -2.1127157152790103e-14  -3.2898758511707651e-35  -7.0040311837853747e-36  -8.2293007865526678e-30  -1.8276566305866436e-37  -1.5233974659366926e-36  -3.7120560971722742e-15  -3.4408780498474836e-36  -6.2566405147939883e-28  -1.2535636254539450e-26  -8.0511969950469030e-42  -9.2913889972604546e-30  -2.5943183486210174e-37  -6.2371601606440524e-33  -3.0636789055821046e-37  -1.5423829804096293e-34  -9.5698684718551958e-38  -4.8209222282148052e-37  -6.5646935548537146e-23  -1.4618508348698995e-18  -2.8960507527486553e-32  -4.2362397880103039e-23  -5.8718815248718215e-43  -4.9418784539400039e-46  -4.8466352374914285e-29  -5.8981058903416889e-34  -9.5443103509240694e-38  -8.6891705576992171e-22  -2.8246854793398113e-24  -2.3184980546062895e-28  -8.9098487209396011e-39  -2.7422196876570841e-32  -1.8419235471196993e-33  -2.1102267547825845e-28  -1.7501416895661217e-27  -5.3809952915947310e-24  -1.5592930574310101e-24  -3.5540028912393897e-16  -3.5558299593938390e-34  -8.0256381273748897e-22  -1.8362532291637501e-34  -2.1147861641439073e-43  -2.2461424464183890e-42  -1.2780762408265221e-25  -4.6873975932918823e-16  -1.7112491370417600e-23  -3.6452524306074469e-27  -4.0115773926445714e-14  -6.3171685034537356e-14  -6.9197128694832254e-26  -2.2229718485661374e-34  -6.2002084781377572e-33  -6.6949489188133297e-29  -1.7106538055206262e-16  -6.5286430396689153e-40  -1.6219453428828399e-25  -1.1734383123767752e-26  -1.1694535909842431e-28  -1.2251806188059688e-18  -1.0568840316546825e-19  -4.9068883743026596e-35  -1.2040448239711363e-37  -1.5505973248000305e-33  -3.4160799935203641e-31  -1.1999228960857916e-16  -1.3723409550248121e-14  -5.6664307139874381e-33  -3.9771727040026101e-31  -4.2767845852684376e-26  -3.3466274119699161e-17  -1.5616947707468589e-27  -3.2461309569947658e-25  -2.0642292872759274e-18  -1.4690692879861923e-38  -2.9456387195534481e-31  -1.2702512757882289e-31  -6.5204110360446222e-41  -9.7908692812394149e-44  -1.8432474717998502e-32  -8.5491055080002161e-44  -1.6195012076866703e-43  -1.5365601017673261e-35  -1.6340452113500152e-33  -2.4814848765067917e-33  -1.4078844997209232e-39  -3.5952108380655489e-39  -7.6609087194176637e-41  -3.1354643117111466e-14  -5.9612436652600748e-14  -5.8747341469626993e-15  -1.6295640766691787e-42  -7.1708247307958492e-38  -1.6335759339378317e-35  -7.0126048403579010e-15  -4.4184637194172497e-32  -5.5940231594434109e-20  -6.9287204001355049e-22  -3.7219746759408125e-23  -4.3109649771600063e-31  -8.4276053367397642e-31  -4.1880305386622053e-20  -2.6305443925931910e-30  -1.0173578999853257e-35  -3.0515280568687448e-42  -1.5595638147437468e-41  -2.2195965857756390e-46  -3.1824808552105650e-15  -6.4176462947731200e-30  -1.2196549487993386e-29  -1.4482497509313027e-26  -9.1314434194863242e-39  -1.0526272941678111e-28  -1.5981178552308410e-33  -1.4913464878121032e-16  -6.5775006018134014e-27  -8.7070388418584717e-29  -7.0686693251928261e-38  -1.1355869428526152e-19  -1.1552985050318856e-37  -4.3396321277315882e-35  -4.2000815161335047e-19  -9.4102201050245889e-41  -5.6541692499601738e-15  -4.7045171455579882e-21  -2.7796864414084831e-38  -6.3219041554107998e-39  -9.2899565983002936e-36  -5.0512837750383996e-39  -3.7350107834395806e-23  -2.3999265951188573e-21  -8.6123098028873418e-42  -1.6625665142046627e-38  -4.4815257618136423e-20  -6.7911702889824528e-31  -2.1444259215217723e-28  -3.2663855245946356e-40  -2.1457436410401401e-33  -1.7472148072690190e-42  -1.3911830689990965e-36  -5.1586304326830824e-26  -3.4290924014426711e-38  -6.5653851632117765e-23  -2.4460519539827891e-15  -1.5137571645511046e-14  -2.7712910855629057e-14  -6.8784948844165646e-30  -1.4270511460036232e-25  -1.5343387799885930e-19  -2.7151610877613868e-41  -4.8374739888757039e-41  -8.9851663536155737e-40  -5.9699409011844450e-38  -1.1142508553989537e-48  -1.3818169073205160e-35  -4.5435755268483266e-37  -1.0536445472680278e-24  -1.1107971321271627e-45  -1.1428798591757423e-28  -3.8056094838007484e-38  -8.8730972066167698e-33  -1.0381946100031150e-30  -3.6044975349580066e-26  -2.7514781155657598e-23  -1.6826178888134891e-14  -6.4478506037004720e-43  -1.0779102362502756e-30  -7.8553510167633321e-22  -3.4627570394169950e-22  -9.0769753005879413e-41  -1.5706563035293406e-17  -3.1142921558469461e-18  -9.4267267346484106e-18  -7.8957994822836822e-20  -5.0738002196447675e-34  -1.5348344110176821e-22  -2.5723642987440442e-29  -8.2153079207170440e-27  -6.5055996062169483e-32  -6.8833592365171689e-34  -9.0970026854648182e-39  -2.8913413757251070e-25  -2.7763387695813918e-23  -4.3326598785606546e-16  -2.5743431441883380e-35  -1.2318841412047184e-16  -3.9719845887472258e-19  -1.3816885602336093e-41  -4.1952755644848568e-28  -1.8511386981511233e-30  -4.4225132488158771e-41  -3.3849580179670784e-24  -4.9610342173544658e-14  -1.6124268284867195e-17  -2.4430528604487637e-33  -6.7019856834833560e-36  -7.2384859405151243e-28  -5.4572566210565379e-36  -1.3593378797785957e-40  -1.2412627969333763e-24  -1.5563677565129701e-16  -1.5752523483447395e-43  -1.2704156839138135e-21  -3.1633913002200378e-22  -1.7957285573829790e-21  -8.0372976297797340e-40  -7.8048725393959292e-27  -2.1262126568000602e-24  -4.5290998361055146e-32  -4.7789522319111391e-15  -6.5208955389193755e-19  -1.6018477152811113e-39  -3.1523623039735695e-24  -1.2132485099817678e-33  -1.4672158433513251e-36  -1.5371644070905157e-38  -5.0192998505364551e-22  -4.5291358666156963e-20  -3.4999704788378899e-29  -8.2658889959849602e-34  -4.9998947423423308e-37  -4.1301719309303968e-39  -3.3295584449931954e-18  -1.3537070695054749e-26  -1.2527733203665981e-38  -1.9245599006026461e-36  -2.3665558717974341e-37  -9.7498015809914378e-25  -1.4354004136200003e-31  -4.1461592917615004e-27  -9.8668342742899048e-36  -1.9032609901129146e-18  -2.5402056073258380e-40  -6.2614416595769265e-27  -4.2094574310688785e-21  -1.6577523372074710e-33  -1.8763604715729020e-47  -6.4486207735333494e-18  -1.7879689020864205e-32  -1.1377167089122223e-24  -3.4416258624401461e-20  -5.2371814483405579e-41  -9.7633544092467770e-29  -1.3723118334757392e-18  -1.2025387765559534e-37  -4.9443371904140289e-44  -3.0779533223122422e-38  -4.0054030991840675e-40  -2.3548856472207900e-19  -2.2159602984798995e-15  -8.8669116432041472e-25  -1.1055585176352934e-15  -1.5447375533673610e-31  -1.2905148267853017e-27  -9.1496979455612420e-21  -1.6790822009198457e-38  -6.2030447974238535e-38  -6.1631853765939044e-22  -4.0010403903902249e-36  -3.0091726856366973e-17  -4.0638273102174448e-28  -1.0796491908552085e-14  -6.4545075921304674e-36  -4.5494215990489371e-17  -5.3042168100699573e-18  -5.9036398900304947e-23  -6.2210431763523007e-25  -1.1191351934619375e-25  -9.4533205910022256e-31  -2.0093347293136451e-31  -7.0575772314958601e-29  -1.0267916600993142e-15  -6.1408615392785622e-40  -1.0976107617843057e-42  -1.6319084166747880e-44  -4.7855063513449543e-36  -5.2472593205660364e-20  -1.3552349542439069e-42  -1.2424294340627135e-16  -3.0026978824421698e-22  -8.9381364421022541e-21  -1.0770423941930635e-33  -3.3310231037332550e-24  -8.2846319921290981e-27  -6.3765652377885038e-38  -1.9223686803500282e-26  -2.7506839991655764e-43  -2.2007740516630634e-40  -5.3743498262045025e-33  -5.3050160243508585e-40  -1.0265873080796934e-29  -1.0657310515522600e-41  -8.6274048089476826e-35  -3.2695275968769469e-28  -1.6370050922400030e-23  -5.6955202619565053e-16  -2.6650541856000360e-45  -1.2456567317320349e-43  -1.5019348934798185e-38  -9.9385883710135794e-21  -9.1594867770344851e-29  -5.8145179837027015e-28  -8.1807163685892844e-31  -1.6699005900882312e-44  -7.4289985218552707e-20  -2.5032813252000477e-35  -3.8364343056762258e-19  -3.7634543168710969e-18  -8.4516164899785333e-34  -4.9751802532528722e-28  -3.7535933815754113e-31  -2.9620896237784421e-38  -4.3394517066461196e-38  -6.9945536764660055e-23  -1.8250335143998864e-18  -3.9725703380925526e-25  -8.1315543644433837e-40  -6.5737055151176708e-35  -7.7403961076439722e-30  -2.0131061374477408e-30  -3.7345968621884554e-31  -2.4666951937414236e-35  -8.5271970642206119e-32  -1.5826096235290407e-39  -4.4963030807591635e-37  -2.3086515201467801e-24  -8.2689889620389379e-44  -2.0490734391735520e-35  -1.3861787645773656e-35  -2.7978532144546316e-33  -8.5882779405744952e-44  -2.3004041262956876e-42  -5.0963646757240846e-43  -8.4815131803014744e-45  -8.6393207220601843e-35  -3.5296191451626805e-38  -1.3011012260467653e-18  -9.3432568069622587e-19  -2.5188868404249363e-28  -2.4935830718377687e-39  -5.3175009593267248e-42  -6.0059835550933920e-30  -3.8441937181758024e-46  -2.6879892731579628e-44  -5.9361787697342974e-24  -4.0305855796796609e-25  -3.0425041991054705e-42  -1.5070513357696626e-34  -5.1515966155289500e-28  -1.1915241704557956e-18  -1.3488076383626864e-36  -1.1175026060270750e-36  -5.6825438951430418e-41  -4.6175772279615095e-14  -5.8603606221980882e-14  -3.0625889655426503e-14  -1.2949715225836834e-30  -5.8602283167269761e-44  -6.2026012390940190e-33  -2.5761774526955697e-16  -1.2329670972636437e-42  -1.0570821290552316e-36  -9.7461009166317767e-29  -1.1184159578083297e-29  -3.8333109334158261e-36  -1.3433712007992512e-47  -4.9064645290247713e-30  -2.8970503933984852e-41  -2.6786030709393292e-45  -7.7633077447137207e-16  -4.2571142891622121e-24  -1.2298199798424252e-29  -1.7729027033027529e-38  -1.2912036722809487e-41  -3.5358887653602846e-28  -2.0173735177496850e-35  -2.1981047713305199e-16  -3.6824242546027065e-27  -1.3942258724094924e-45  -1.0026638995029080e-25  -2.1486547138514540e-17  -3.5849316596468503e-22  -2.6955930077245999e-33  -1.0577035524377594e-20  -1.1683150081645207e-23  -1.2535601788832473e-20  -8.3627750421619552e-39  -6.8411096047961028e-32  -2.1800555969783393e-14  -8.5300872017942032e-22  -3.2981927709961033e-16  -2.4189817735108814e-17  -5.4137456447791137e-17  -6.5841910667113509e-15  -3.0530911628881443e-15  -4.0763804434834500e-41  -1.5644627463670560e-42  -9.5723115263029422e-27  -4.5083773419976236e-25  -1.3795330633025243e-24  -8.0274034829576216e-23  -5.3139027478383725e-14  -4.2316751935996633e-35  -3.6320011321620223e-39  -1.1803454044514596e-21  -3.0491251522886031e-41  -1.3553873068729658e-40  -1.2733117593741909e-43  -1.8580267685360838e-33  -4.2758588186680605e-43  -1.3252441848133128e-20  -7.7169077276985482e-39  -2.2368695160429736e-25  -1.7514601685300027e-37  -6.1673141233912113e-38  -4.6111848773225698e-16  -1.2200479206215109e-15  -2.0582807206289203e-40  -3.3619783045157393e-26  -9.1897219795878741e-46  -2.0290106174276039e-14  -5.1734339547036694e-33  -1.8520305639613810e-44  -1.8351494150470011e-16  -9.2911540011180386e-17  -5.7056145921016710e-29  -8.0785291259589307e-37  -2.9783365350450446e-26  -8.5512052055049738e-21  -7.3618593896449626e-45  -1.9326202447437273e-15  -2.6324516735024589e-40  -4.5425987057003024e-37  -6.4441896212778676e-21  -2.5992510158118342e-36  -2.2905482917844734e-14  -1.9019108870336835e-26  -4.2005114563944479e-34  -2.2236933080828002e-32  -8.2120156541039818e-30  -2.9642606826277519e-40  -3.6402333943289968e-32  -1.1940478820149855e-30  -1.2499942807957018e-22  -1.2481270165055517e-31  -8.0084430389762529e-35  -5.2303298889133672e-40  -2.8967485922719274e-41  -3.5503973792597402e-33  -2.1256950510885725e-20  -3.1459505822551033e-40  -3.5863927067952903e-42  -6.7815855854500862e-24  -3.6484361098439804e-48  -9.0771148404006823e-40  -1.9992497430237212e-46  -2.9283211882374638e-38  -2.3748624172646715e-39  -6.7675152929534175e-41  -1.5776084163988456e-25  -1.3289181459783295e-39  -1.5967172370920700e-43  -1.8391140613413249e-33  -6.4937642380286963e-31  -2.2919132703591418e-42  -1.6092101481265419e-42  -7.3036775406798211e-43  -8.5286043812338641e-18  -1.7204306097912748e-19  -3.0193596119136143e-21  -3.3324764601326553e-40  -6.3600257273517254e-15  -7.4620305323716913e-20  -7.8741410214817125e-36  -1.9720078216594948e-30  -1.5865999665731789e-39  -8.6727240051964294e-16  -1.1377620138141659e-35  -2.8000047886546801e-45  -9.9359497852498643e-17  -1.7155365394190924e-28  -3.4214001692467744e-14  -6.2540665876271974e-14  -9.8397646279241346e-44  -5.0783318739547563e-48  -1.8416035672512507e-49  -1.3317710012752541e-49  -2.1994305187588452e-23  -8.9758814659532395e-42  -3.7265011040302169e-14  -1.7708008371917193e-44  -1.3212823477425988e-46  -1.9966750261796357e-45  -8.5895919446892326e-33  -4.0930730960226573e-36  -5.6960031301270700e-27  -1.4236075478206931e-38  -7.8239675929355822e-26  -2.5269169692242313e-39  -2.0059720706562630e-15  -1.8636553814818603e-15  -1.0010749215325517e-14  -8.3456822562282758e-41  -5.1823949997327843e-16  -1.9997685330834350e-18  -2.6221358264305788e-14  -1.3154939391623645e-31  -1.4984386740392290e-21  -2.9812309362311790e-20  -2.8060489008213015e-33  -2.0960183159567408e-23  -2.2830114835709307e-24  -1.9069751629251926e-25  -1.9099833702765704e-21  -8.3197962814619785e-15  -3.8952774165206355e-14  -2.6110775050885013e-38  -5.3464752521832692e-34  -2.8162670452781723e-31  -4.0270392359105688e-37  -2.0184275322338184e-16  -1.8170076428875913e-41  -3.1287808775182369e-24  -4.7777270280368562e-33  -1.9798350832180810e-22  -4.9609403244876872e-17  -3.3050346291143316e-28  -1.1019765917112946e-31  -6.7730094086821369e-26  -2.9116445496018377e-19  -5.2052221098959163e-21  -6.7186163442226247e-35  -3.5443105285722352e-39  -4.2009196949994011e-17  -6.6718433500384445e-37  -1.6386266844901193e-38  -2.5924652114154968e-24  -2.9702660137215421e-29  -8.4600262877962900e-18  -4.6349415637573122e-31  -9.9686476448124617e-16  -4.9937406289763024e-40  -2.0457002802206044e-26  -2.8996753178798568e-27  -3.5521955784210180e-37  -5.8121777838843713e-34  -4.0965550971947375e-34  -2.5451844430770531e-36  -2.2289745664865124e-35  -6.0793021626775322e-34  -2.5869406270665754e-22  -6.9558247338406743e-34  -5.2576430629627291e-28  -2.9523937416276624e-23  -2.7277648732278099e-29  -7.5459367854265589e-30  -1.8595108917085206e-39  -3.7273088142868898e-26  -1.5921628452454199e-31  -1.2724937902225502e-32  -2.6400489417367642e-32  -1.0712121303596413e-32  -4.8403563489811410e-25  -1.6060937168038770e-25  -4.9035117060170005e-27  -8.2477392290120993e-22  -1.9101551542430834e-39  -2.0813194693395671e-36  -5.4501212031136413e-37  -6.7300236145935356e-35  -2.8436962569896476e-34  -1.6354863443829845e-35  -8.6015225387403232e-40  -9.6847751185228985e-30  -1.4848713621563805e-27  -2.0379653826727642e-39  -1.6069578772571611e-41  -9.7709919838323641e-38  -2.1732395935089123e-28  -2.8666190931450953e-23  -5.4163627723455449e-20  -1.6351076199781032e-29  -6.5348795099283732e-37  -7.4819836439131571e-18  -5.9587535856149416e-26  -4.1206724175680285e-41  -6.7894126916924261e-16  -5.4754140219992077e-35  -2.761603