<?xml version="1.0"?>
<VTKFile type="UnstructuredGrid"  version="0.1"  >
<UnstructuredGrid>
<Piece  NumberOfPoints="6486" NumberOfCells="12696">
<Points>
<DataArray  type="Float64"  NumberOfComponents="3"  format="ascii">0 2.5 0  0 0 0  2.5 0 0  2.5 2.5 0  1.25 0 0  2.5 1.25 0  1.25 2.5 0  0 1.25 0  1.25 1.25 0  0 0.625 0  0.625 0 0  0.625 2.5 0  0 1.875 0  2.5 0.625 0  1.875 0 0  2.5 1.875 0  1.875 2.5 0  1.770833333333333 0.7291666666666666 0  0.7291666666666666 1.770833333333333 0  0.9375 0.625 0  1.875 1.5625 0  0.642361111111111 1.163194444444444 0  1.341594827586207 1.883979885057471 0  0.46875 0.46875 0  2.03125 2.03125 0  0.3626104797979798 1.513178661616162 0  1.381740196078431 0.4564950980392157 0  0.9375 2.172619047619047 0  2.172619047619047 0.9375 0  2.096354166666667 0.4036458333333332 0  0.4036458333333333 2.096354166666667 0  1.684027777777778 1.163194444444444 0  0.3418803418803419 0.8693910256410255 0  1.642742622813391 2.162164207604464 0  1.275619849389031 0.8465650753054845 0  0.9136284722222221 1.434461805555556 0  1.732437511238546 0.3406962303960658 0  0.9714402568595876 1.029779313093998 0  1.52281746031746 1.485615079365079 0  2.1875 1.71875 0  1.06819722569879 0.2997236128493951 0  2.136114211309524 1.303478422619048 0  0.3125 0 0  0 0.3125 0  2.5 2.1875 0  2.1875 2.5 0  0.3200021620376328 1.192323085056694 0  0.6738456129277992 0.8304377375553881 0  1.757891808928991 1.861952730357003 0  1.5625 0 0  0.9375 0 0  0.3125 2.5 0  2.1875 0 0  2.5 0.9375 0  0 0.9375 0  0 1.5625 0  0.9375 2.5 0  2.5 0.3125 0  0 2.1875 0  1.5625 2.5 0  2.5 1.5625 0  0.7448220909826522 0.3003573636608841 0  1.027298850574712 1.871151477832512 0  1.331260495098891 2.197262878816185 0  1.207917681892289 1.582765010956622 0  0.4339993447432606 1.801186844743261 0  0.6337298768939392 1.443093039772727 0  2.049851190476191 0.6826636904761904 0  0.6584821428571428 2.219122023809524 0  1.89575676467455 0.9798457973793544 0  1.437570562095628 1.059380588255917 0  1.502090052505845 0.6987070896496241 0  0.2040860661083546 1.705323965099331 0  0.2083333333333333 0.46875 0  0.5070952039991439 0.2211150679997147 0  0.6916302856529919 0.5813591430410241 0  2.265625 1.953125 0  2.2265625 2.2265625 0  1.886424081252096 2.243391360417365 0  1.40625 0.202164758520858 0  0.2269345238095238 0.2269345238095238 0  1.152730869673694 0.5225850378741401 0  1.885631899587912 1.312095130148776 0  1.614808884009367 0.9049784971014416 0  1.890095442220658 0.5126535558463003 0  2.323168682795699 0.46875 0  2.268811725689575 0.2304742875213018 0  0.6002389442105756 1.967426444210576 0  0.1768313172043011 2.03125 0  0.2311882743104251 2.269525712478698 0  2.03125 0.176831317204301 0  2.280262553344767 0.6954945504579233 0  1.979219539285994 1.809922269642997 0  2.336309523809524 1.09375 0  1.09375 2.336309523809524 0  0.9314042474388009 1.662973812215543 0  0.1634067999087722 1.40625 0  2.337090640094896 1.40625 0  1.141616997467638 2.069311773587991 0  0.46875 2.338939559681489 0  1.542440307908715 1.734944797244472 0  1.556713687786879 1.956977865354753 0  0.8264238995344066 1.975424467820646 0  1.466326331454725 1.275271369760862 0  1.655675324257095 0.5444159974393489 0  0.3385416666666666 0.6479255698005697 0  0 0.78125 0  0.5236073939200119 0.984090461540625 0  2.091665741047893 1.519793517904215 0  1.71875 2.5 0  0.5356538886262603 1.623137930505009 0  0 1.09375 0  0.1932884281517095 1.015625 0  0.8569313582417669 1.2198915584249 0  0.8876981284879677 0.8329884081524883 0  1.115618488474214 0.7219586973356271 0  1.186950366204949 1.043465130075318 0  2.057459118787237 1.110823087309335 0  1.830651283878689 2.049810069572418 0  1.689107969301489 1.367247437031697 0  0.4921048768039656 1.298643370653124 0  0.8213975694444444 2.336309523809524 0  2.03125 2.5 0  1.049729400480002 1.283723261332814 0  1.308101375801673 0.6489479469700392 0  2.5 2.34375 0  0.4968777175037714 0.7562964879736076 0  1.40625 2.5 0  1.501347663534097 2.307027627307738 0  1.602813712048603 0.1926218191360736 0  0.8393082906308107 0.463778306132633 0  1.682663349152719 1.598471865581041 0  0.7774174680851571 1.560004941327907 0  1.554204170364662 0.3898593897892066 0  1.842184459051087 0.186443880058197 0  1.358107417651776 1.696381759610015 0  1.18859291992392 1.77598670078022 0  0.1875331222687418 0.7609599743339348 0  1.339536743965101 1.422080365801479 0  0.7788179348750389 0.9955343414928611 0  0.9062978492805438 0.1919636509126373 0  1.256007360640958 0.3160320559396114 0  1.09375 0 0  1.174986727221844 0.1594990293443933 0  2.34375 1.796875 0  2.318026474511116 1.589177949022232 0  2.34375 2.5 0  1.672742954892153 2.332882724550692 0  0.2683637361947215 1.874801596909639 0  2.174770749820102 0.5581009131310781 0  1.443279522965991 0.8870068372898454 0  0.3385416666666667 0.3571428571428572 0  0.78125 0 0  2.060421048269335 2.314363248763811 0  1.088078737088509 0.8967352118723447 0  1.087825368444708 1.454931510884769 0  2.018308232129541 0.8548495425854904 0  1.943987311736842 0.3246298523011434 0  1.71875 0 0  1.85337849796276 1.144833312386208 0  2.3486328125 2.1044921875 0  1.407588788651747 2.042968789119587 0  2.336309523809524 0.865366648092144 0  2.34375 0 0  2.5 0.15625 0  0.15625 2.5 0  0 2.34375 0  0.1638044648294291 1.242263417405867 0  0.356216654757926 1.032569427322806 0  0.3188217956111817 1.355736727000647 0  0.5924956460852111 0.36112522004736 0  0.6594216488965849 0.1603472116132387 0  1.841804599497131 1.72214349266521 0  0.15625 0 0  0 0.15625 0  2.115898634821499 1.894570904464496 0  0.7821877980253907 0.7129993435924866 0  1.003820447087786 0.4516053462784233 0  0.477562948779147 1.138333049293613 0  0.719493678605015 1.305655360135975 0  0.9772457618587566 2.020350128938537 0  0.8764738248887107 1.826219722709673 0  1.254787875123819 2.339010653832026 0  2.343597354852534 1.249982759769001 0  0.78125 2.5 0  0.46875 2.5 0  2.5 1.40625 0  1.09375 2.5 0  2.5 0.78125 0  2.5 1.09375 0  2.03125 0 0  2.5 0.46875 0  1.40625 0 0  0.46875 0 0  0 0.46875 0  0 1.40625 0  0 1.71875 0  0 2.03125 0  2.5 1.71875 0  2.5 2.03125 0  2.005424054645407 1.653223486966518 0  0.1538730573856537 1.559850281736677 0  2.33984375 2.33984375 0  1.166539506212474 1.922878979538754 0  0.3914885633949916 1.65887232812171 0  0.5795503163042564 1.766243562569382 0  0.399533125920212 1.946786875081388 0  0.7866324979014098 2.127719094551316 0  0.3654683023546834 0.1495701132219454 0  0.1527388747131078 0.6116379440619215 0  2.013737577140188 1.391056634712135 0  1.17635437372994 2.213329084238133 0  1.737118141866284 1.010577140843115 0  2.200707118087222 1.164723314085963 0  1.697018908736685 1.993548551451517 0  0.5387621649009668 0.6070503962352419 0  2.032805785855952 0.5330427622570983 0  1.082699501358059 1.667818725183932 0  1.503819781540653 0.5468420196858188 0  2.015409142866072 2.175941657590429 0  1.752057611265444 0.869642097111018 0  0.612251684107783 2.356045720700959 0  1.902817102342857 0.6607642211999982 0  2.159616561739693 0.7867739969338844 0  0.5120038350106624 2.197302352398502 0  1.888200216011548 1.919501662489862 0  1.495909909726654 2.16028358757309 0  0.489139876703609 1.443203008943564 0  0.8819175670410521 0.3301172743913011 0  1.882591144370812 0.8155965192707721 0  1.133979796994841 1.172526771862882 0  2.206217447916667 2.084147135416667 0  2.20361328125 2.36279296875 0  1.395746985657004 1.556054166359645 0  1.704383111516207 1.734750450338683 0  0.9575737847222222 2.36274223823052 0  1.035150984253136 0.1302833343179028 0  1.383966125325753 0.7651479963479179 0  1.64003252158672 0.6824316405528895 0  2.22550785055421 1.487078576356817 0  1.760964431499756 1.48495222505201 0  1.276460980673788 2.004207003584658 0  0.1341477688427096 1.828777507920502 0  1.542261434180652 1.155296658359034 0  1.334627911613854 0.9696897472490321 0  1.30794231473696 1.119420615785191 0  0.7028260459857245 0.4438906910721139 0  1.625757433094055 1.84268057552138 0  0.9818707849053143 1.165603626132254 0  2.0086489901463 1.243134585689553 0  1.934584460420609 2.374094051915812 0  1.798434376789567 2.38671361912528 0  1.206314791201715 1.382064292497919 0  0.6333752893366955 0.7023738550008095 0  0.7796219811205605 1.42573253164258 0  1.564399711917382 1.026040828857629 0  0.3385416666666666 0.4889012896825397 0  0.1041666666666667 0.390625 0  0.989112246382566 1.543537365516289 0  2.025724425454636 0.9846960595520872 0  0.6602885475034063 2.086117390485779 0  1.607130551925032 1.267198646640915 0  0.1317864544877056 0.8896173683400176 0  1.755387840017567 2.230364320056445 0  1.301540702984401 0.1216289692748247 0  1.433170657577442 0.3331052752740999 0  1.500459610550388 0.113513924782439 0  0.6494291520606965 1.029586599619295 0  1.010146149868299 0.794897284196169 0  0.3700844198238017 2.235390157870766 0  0.3360891767780704 2.36656279435396 0  1.876856241037701 1.437150669863757 0  1.778674102957329 1.245979347269706 0  0.5472829890977179 0.1005517127039925 0  0.4669074189005698 0.3416784232954367 0  1.472765289289269 1.850899166481903 0  1.555853593327178 1.608452097912802 0  0.6708955559113426 1.646561631116984 0  0.8164699620322933 0.5924479455478063 0  0.3167738989468366 1.758696809749795 0  0.2788007305565096 1.605499483471246 0  0.7821720982350511 0.181524936294752 0  1.376812251214195 2.313340247908297 0  1.785652202614777 0.5962261755537186 0  1.761467296310972 0.4679567244718574 0  2.2265625 1.8359375 0  2.3828125 1.9140625 0  0.5279531607054191 2.071552361614785 0  2.397573269551114 0.234375 0  2.383578172599618 0.3589298466020009 0  0.1024267304488855 2.265625 0  0.1164218274003825 2.141070153397999 0  0.2696857594953064 2.135405441512016 0  2.164961300137334 0.1375322943529536 0  2.137757548369486 0.2724194778647587 0  2.238873711826398 0.3626419179496562 0  0.1001414910226386 0.234375 0  0.2176339285714286 0.3478422619047619 0  0.2503620791333544 0.1061694061057066 0  2.336445461915368 0.1250451055247424 0  0.2154004640409726 2.3918124
[...]
<PointData  Scalars="f_124-2"> 
<DataArray  type="Float64"  Name="f_124-2"  format="ascii">-2.9130981468773855e-28  -5.1876648907071139e-15  -2.2442323010619556e-32  -3.3701337036000709e-36  -5.5300347510193426e-19  -1.4423806905155963e-30  -6.9363326152609661e-29  -9.2517394881746189e-16  -4.5679013409827732e-18  -3.2215645039201624e-13  -2.7915114319224935e-15  -2.9105252018591441e-28  -3.2544004540562693e-21  -2.1109272170088798e-32  -3.9959158803798141e-25  -2.8449845777773633e-32  -1.1967198810350780e-31  -2.2864226262336310e-22  -3.0426727217766775e-20  -4.9552045044682696e-15  -2.6221301604455503e-24  -2.0138100297848239e-15  -6.8606841521329168e-23  -2.0917380816103784e-13  -1.2364826566603464e-28  -7.9169722695524880e-18  -3.0483326680980655e-19  -1.1536313780406126e-24  -1.0257049117933039e-26  -1.0872145375762223e-27  -1.2019888481254540e-23  -3.3855552559808921e-21  -8.5315123456410671e-14  -5.0065861231511228e-27  -3.0580921862691640e-17  -1.0422149045867624e-17  -1.8186156387417546e-23  -1.1260010322397508e-15  -4.7199570697638615e-21  -3.5779241802387796e-28  -3.4730038891970365e-17  -3.6275841155425010e-26  -7.4005700482719042e-15  -1.9272500214913114e-13  -5.9280152269792488e-34  -6.8537594700826418e-34  -2.0101946207226167e-15  -4.8696080665584131e-14  -2.7431895591872754e-25  -6.5860358260190991e-22  -1.0189695634924512e-16  -1.7890288479201454e-28  -8.5647807380126233e-29  -3.6431654441624699e-31  -3.8429646245166326e-14  -4.0211565855941942e-18  -1.4313237010747557e-28  -6.7310976965890378e-33  -1.2334465923775559e-24  -4.9022015956071473e-30  -5.2718607099350194e-31  -4.2511946333824181e-15  -9.9134022220591083e-22  -5.6526220630240358e-26  -6.6626710560625619e-20  -1.8732181135495424e-20  -2.8124474978019620e-17  -5.1205971996016290e-26  -3.7769096309921604e-25  -2.6270998614184336e-23  -1.0557143172860233e-18  -1.7239873508671194e-19  -1.7914090093196136e-19  -3.5235692497925679e-13  -2.0174436730963558e-14  -6.9004857075084361e-14  -2.8101629049978255e-30  -7.6541502697766528e-32  -2.0786447688637214e-29  -2.7038462552971985e-20  -9.2213150118108009e-14  -6.7162195390600203e-17  -1.5132899278464682e-23  -2.7247572879998414e-20  -9.5243071332022513e-25  -1.1922586239870369e-30  -4.8451898661925721e-30  -3.1960309504199585e-22  -7.0729513891198670e-23  -9.5702452284546220e-26  -4.5593419496371821e-27  -4.6563461263252832e-29  -1.0967488778442076e-26  -1.2133940604079530e-28  -8.7189628903463040e-27  -1.2888510179366466e-19  -6.4674773899314485e-17  -9.3061792322868491e-29  -5.1827079638475665e-24  -2.0918121585797940e-26  -7.7997261767103364e-23  -1.0013810314972752e-24  -2.1351074547938164e-22  -1.2522813448301655e-19  -9.9713145924073277e-22  -2.9269813543203094e-13  -1.3859389795601835e-13  -2.2844313985306958e-14  -2.2707237205390440e-26  -1.0101782588978677e-30  -8.0421567879535235e-19  -7.0484357514170070e-15  -1.8074471358484064e-14  -3.5421164973797787e-16  -8.6091515612872037e-15  -4.2365233955278505e-16  -6.3341962801278948e-17  -3.5266914925113879e-25  -2.5189844817820747e-27  -7.5970026177121439e-22  -3.9154299299179541e-16  -1.4742709364795654e-26  -1.0803748930095451e-32  -2.4226683708786332e-17  -8.1632673216027671e-18  -4.5659276226261310e-35  -1.4695827365394612e-13  -2.0335097804353116e-29  -8.6129742807009151e-28  -2.9697469282655553e-22  -7.1479148512767475e-15  -6.3190164017507400e-23  -1.8318779116182862e-18  -2.6682075949780237e-21  -6.0610989039795197e-25  -1.9142139413402165e-21  -2.3843104221976561e-21  -1.7796326379284298e-13  -1.6818622996385386e-19  -8.0426679193908311e-15  -2.0498086817572641e-16  -1.1150358951889946e-18  -8.8401433624508591e-18  -3.1069907603550832e-18  -3.2137734083045502e-30  -4.4902454925300473e-29  -4.8181360421837899e-35  -7.2108070912114472e-29  -3.7044617184340518e-21  -2.7540574887081517e-28  -1.1287863961941650e-18  -2.1040491753132681e-13  -6.7385978372974758e-16  -2.4966905829718065e-31  -5.7276670587868380e-16  -1.7069102610352517e-18  -5.3971168025458214e-25  -6.2582469904409308e-26  -2.0115758888309751e-23  -6.4295186886200801e-23  -4.8020488755196707e-32  -9.4565370791153615e-25  -3.5366105720730137e-29  -1.4381050597931454e-30  -1.2696328503014046e-32  -2.5631346418674144e-28  -1.3129275788759846e-26  -8.5907590167322594e-16  -1.7161636684144355e-14  -1.4423316133912600e-16  -4.3517257138197496e-14  -2.8766693042869088e-15  -5.4258052088397185e-25  -4.9031867200117687e-15  -4.0277771080313143e-14  -1.6155181833695829e-28  -3.0765190979925994e-14  -5.3836479979017509e-16  -4.3729405542042282e-15  -1.9447630151728134e-16  -4.7055512797004980e-23  -5.8480990468056642e-21  -3.4119602685477692e-27  -1.0464853138799219e-28  -1.6904182375731539e-28  -2.4398251462010150e-28  -1.2641428437832898e-30  -1.2094157733489443e-28  -1.0372810323273102e-31  -1.0561959757176493e-30  -7.0476965856888640e-27  -5.4426615864377717e-33  -1.7081461468483057e-20  -6.3770252441126690e-15  -3.4912459874297740e-13  -8.0393141793536146e-17  -1.3960540300758215e-19  -8.6402232712229198e-23  -1.5309325819795216e-31  -4.5253530632766014e-33  -5.0001004865103744e-26  -3.6609808777111392e-18  -1.1292634444345807e-33  -1.2419645137971589e-22  -4.6621664853292137e-19  -3.3145641371489360e-20  -5.9391893132470258e-22  -4.4039722220753201e-24  -2.3108414555486107e-14  -3.3533893543678416e-13  -4.5006154255956365e-25  -1.5106163824196783e-25  -1.4208526316456786e-21  -6.2293440115727120e-27  -7.3789734068313329e-26  -1.8454666524007915e-13  -1.8501668699996041e-26  -4.6228229713273507e-20  -4.0820618540697654e-20  -9.5749364987956799e-30  -9.8893558965605578e-22  -9.5181842649412684e-27  -3.4477148974285094e-24  -4.4478494099826461e-27  -9.0521956874459899e-25  -1.0076327119209345e-26  -2.7893805358447870e-26  -3.1581268911186192e-17  -9.6320031023324358e-16  -1.5929043134706277e-23  -4.4165955274371745e-17  -1.2774920160457118e-30  -6.2496806263623258e-33  -1.0286653905000310e-20  -4.9733220145723338e-24  -5.1910284470708113e-27  -2.9690752453920830e-17  -3.0721446403105822e-18  -4.7792216118890786e-21  -1.2251544343662692e-27  -6.2486892846609045e-23  -9.1710607577593615e-24  -1.3276315951000037e-20  -7.1801217774205621e-20  -8.6286158516047315e-18  -5.7001234567616813e-18  -3.1264194828919300e-14  -3.5728854819796373e-24  -2.4015466155459612e-16  -1.2178408342905917e-24  -6.4193700421539706e-31  -3.6173554967064765e-30  -1.4709349566225677e-18  -1.0281798290287792e-13  -2.1568562710998270e-17  -8.8831813893454728e-20  -3.2636506337093019e-13  -2.8129167023772423e-13  -9.0577917357186192e-19  -7.3079660084397799e-25  -1.2318284532939294e-23  -9.9696709638993038e-21  -6.3993294918392157e-14  -2.5207962857752987e-28  -2.3814142296323495e-19  -3.0703586987968459e-20  -2.8991445691989491e-21  -9.6649077482827665e-15  -1.9893790387553851e-15  -4.0124973907329567e-25  -6.5861679271347468e-27  -7.5925927059422272e-24  -2.6299784510989399e-22  -5.0460258462940084e-15  -1.0290329062134681e-13  -2.4238169471310563e-23  -4.2731223360248863e-22  -4.2445132297134213e-19  -1.9972300141494760e-14  -5.2236286902009064e-20  -1.4486163057144765e-18  -9.7944314190484648e-16  -2.0351054033318453e-27  -4.6904184519533288e-23  -2.2684050149918729e-23  -3.9442262804665774e-29  -2.8846357485730355e-31  -2.5136855247662714e-23  -1.0166763612923269e-31  -1.5105599123317642e-31  -1.6827522746600901e-25  -4.8562103011748819e-24  -6.0850163125256656e-24  -1.2743907091955057e-28  -2.2912945455083207e-28  -1.3795070403819500e-29  -9.4709053037302955e-14  -2.3646295847224669e-13  -1.8708513665228393e-14  -9.5879211697625308e-31  -3.8309993932763925e-27  -2.3707131548534364e-25  -2.0745721553038789e-14  -1.7717988000253682e-23  -6.3772953290495997e-16  -1.7543967565298718e-17  -5.5675526184496886e-18  -2.2887400230320531e-22  -6.4138382676087307e-22  -1.8913787356918817e-15  -7.2809585444884194e-22  -6.8009678782624964e-26  -8.3957367276926584e-31  -2.7700156367194007e-30  -3.0437971266346824e-33  -1.0540885536744990e-13  -1.4123369987768165e-21  -2.0203193079854617e-21  -1.2104087334313460e-19  -1.4059327443538818e-27  -1.4686719164047520e-20  -1.2853361328140202e-24  -7.2010448366069043e-14  -1.5226247331943780e-19  -1.1112847567917549e-20  -1.2685885667527902e-27  -3.2734903477178082e-16  -3.5274754328039767e-27  -6.4112146576133533e-25  -3.8231948255918622e-15  -1.5152932670265397e-29  -2.3470031763376786e-13  -4.6412037646858415e-16  -3.5646518091310402e-27  -1.3282737342112348e-27  -3.8172342122657127e-26  -7.0323867023260903e-28  -2.3742746601664522e-17  -2.7022998817740852e-16  -5.7214815930835834e-30  -1.4389204534640491e-27  -2.0546531430596031e-15  -1.1367782898469009e-22  -6.5282090005095274e-21  -1.5306927122316780e-28  -2.5761213921158453e-24  -2.2146479949911023e-30  -6.8284612859540825e-26  -7.0301238660984367e-19  -2.3164175602311303e-27  -5.8476716989670217e-17  -1.8702817047444213e-13  -2.8532791276271513e-13  -3.5351078537902291e-13  -2.9694983114268693e-22  -8.3040383221945687e-19  -2.4366764317968155e-15  -1.1056081648455661e-29  -1.2154958259807034e-29  -2.2324736299855202e-28  -3.2283856002482925e-27  -4.8254096552014406e-35  -2.9234167783588827e-25  -2.0269163440653265e-26  -7.0512229802209936e-19  -1.1512707090157163e-32  -2.3813130415910493e-21  -5.0751752318654278e-27  -1.8294201231929246e-23  -5.2106311773264237e-22  -6.4467786865865547e-19  -2.0711765672756891e-17  -7.6082450600359301e-14  -1.4934130503946364e-30  -8.6935190165944642e-22  -2.2745646383169360e-16  -1.0005619126808713e-16  -5.0078366365867809e-29  -3.0871397485609406e-14  -9.7894561946839739e-15  -2.2973639991640558e-14  -2.3114308056945029e-15  -8.6996193240550987e-25  -8.4050153421109062e-17  -5.5147320284396382e-21  -2.5587274186386180e-19  -8.8205528159621955e-23  -3.3624621100701897e-24  -4.3498573421924008e-28  -2.0055511603772436e-18  -3.0582892583135751e-18  -1.1616795983570559e-14  -2.7163699699372304e-25  -5.7321112781741610e-14  -5.8681538724670676e-15  -1.3498343923155723e-29  -4.0260774385127854e-20  -1.7858889900964802e-22  -2.7725114795947442e-29  -1.0422062862102082e-17  -3.6763635198287941e-13  -2.2706522685457946e-14  -5.5266878332704804e-24  -6.4789814925192263e-26  -6.1596835362142864e-20  -8.6289041529199152e-26  -6.7617027275610689e-29  -3.2975516488750556e-18  -7.7781051488976976e-14  -1.6143860577611124e-31  -7.4793737867127381e-17  -5.2029797897244890e-17  -1.9411376536384792e-16  -6.9101304572367176e-29  -1.3423692075371262e-19  -3.9974438145409398e-18  -7.5702272769583274e-23  -2.3057074272130107e-13  -6.4112359763672620e-15  -2.5551946817755715e-28  -9.9323093940178978e-18  -7.5697330228784782e-24  -6.8389468662486936e-26  -2.2740497337774031e-27  -1.1745141470797465e-16  -1.2700832299561150e-15  -4.0652878419499870e-21  -5.7326778726567878e-24  -3.2098585980568018e-26  -1.0245744318035933e-27  -1.3938814806402462e-15  -3.9044405839009181e-19  -1.1658367623376513e-27  -4.2556483660027030e-26  -4.3248986197765794e-27  -6.0581201054115134e-19  -1.0923819406288186e-22  -2.6530838924569604e-20  -2.4526642964630914e-25  -1.1055448792832916e-15  -2.1854628689693946e-29  -1.1320564645405904e-19  -5.1204735135142542e-16  -1.7934118745345910e-24  -4.7811651287370648e-34  -2.1996318747805928e-14  -5.0772241071798984e-23  -1.1638798354702236e-18  -1.3689457380542308e-16  -1.2375785532017781e-29  -1.5319231874077247e-20  -7.0745511914196470e-15  -9.5098188486593463e-27  -1.8069268701449332e-31  -8.7204056954147668e-28  -1.0883439396715031e-28  -2.1088950101754479e-15  -1.8975181073489884e-13  -4.7568820125090267e-18  -1.3065753902372327e-13  -2.3079847542900549e-22  -1.1731031054783856e-20  -5.2151692585609976e-16  -7.8852919227200832e-28  -1.8384247938679367e-27  -1.1259687509143572e-16  -7.4196333279017950e-26  -3.5122359178799664e-14  -3.9737281697197340e-21  -2.8913049338190299e-13  -4.7427357896914325e-26  -7.7700709752431603e-15  -5.8680880077314299e-15  -4.7795548716207008e-18  -3.0115486654448265e-19  -1.4594937047451111e-19  -7.3268356929615932e-22  -2.3471987944406159e-22  -1.3464775459226722e-20  -1.0436429511851267e-14  -1.6305505709250807e-28  -2.1971279492636768e-30  -8.9492156182148846e-32  -7.6972410221061864e-26  -1.6390494739179370e-15  -2.2552954936438761e-30  -2.6789385782273625e-14  -1.3958884624271954e-17  -7.8105549972526453e-16  -3.6280661860974859e-24  -6.9194003850831068e-18  -2.6516679614177492e-20  -6.0288048625648199e-27  -2.0875928696154597e-19  -1.8450634051391377e-31  -7.3309394975351031e-29  -1.2864555979638291e-23  -2.1991594620740111e-28  -1.8361018310702958e-21  -1.1444781593845106e-29  -1.7278106364626731e-25  -2.1521925164139249e-20  -2.3821687729807134e-17  -7.2045512253553223e-15  -7.3389564090352106e-33  -1.0550240243653677e-31  -1.3247704550717130e-27  -1.0037541239311858e-16  -8.0903328783856311e-21  -2.6178597340071667e-20  -2.4360073978293555e-22  -9.1110740740279750e-32  -2.2223610199162170e-16  -4.5910350210765143e-25  -1.3987544783016504e-15  -1.3754109552722891e-14  -3.0201600081677763e-24  -2.2505958797618147e-20  -2.1057985450614877e-22  -1.8647226919161943e-27  -2.6448938902796666e-27  -7.9824103411853611e-18  -9.1974272881708644e-16  -2.5920615370935018e-18  -5.5598218811387634e-29  -5.4099557633099594e-25  -1.8143492282636106e-21  -6.8059159886334914e-22  -1.7147686362158023e-22  -4.7532923152062924e-25  -7.5420296426529596e-23  -4.3060127296521040e-28  -4.6371849501843910e-27  -1.1310461631061412e-18  -5.7113569979283247e-32  -1.1778015165323390e-25  -6.8125398433991830e-26  -4.0501739726507353e-24  -2.5968103654530037e-31  -3.1874927148050634e-30  -9.9224458075080347e-31  -1.9432765116996495e-32  -8.7469520699101673e-25  -9.7351883222175544e-28  -6.7675850536671052e-15  -6.2749577398384051e-15  -1.3709855262543805e-20  -6.3376897123195226e-28  -6.2434832422165510e-30  -1.8857061783659050e-21  -4.7351225858750907e-33  -1.2063460943728609e-31  -6.9508621909387753e-18  -1.6102209487598254e-18  -1.3355472581635120e-30  -1.0304343972310541e-24  -3.2281391199461591e-20  -1.2678794147948192e-15  -6.0069065168621051e-26  -3.1793584120128053e-26  -1.2038998613769410e-29  -1.6181961074554292e-13  -3.0033638105560220e-13  -2.1111613381282077e-13  -7.5159283355363905e-22  -8.4790054022154139e-32  -2.3292215094991112e-23  -7.3900758565234056e-14  -4.1617830342805167e-31  -2.5753264404630989e-26  -2.5595270840343970e-21  -5.3452874711338189e-22  -1.2575242032422455e-25  -3.4309855286454710e-34  -2.3231557235649609e-21  -2.4512996338173105e-29  -1.9875393497218860e-32  -1.2004218027301044e-13  -6.6856191395314813e-18  -4.2159748611767655e-21  -1.2985184397992923e-27  -2.9579433365795519e-30  -2.2463436805469782e-20  -4.6959447952268881e-25  -6.4133765853213053e-15  -3.6445010232076273e-20  -1.1664633307902252e-32  -1.2656617332786975e-18  -2.6706290754748161e-14  -1.0986822318436500e-16  -1.4475434362735769e-23  -5.2975434647121108e-16  -1.6320724046251787e-17  -1.2623024500905436e-16  -1.0152972767264200e-27  -3.6378475773708728e-23  -6.9900856585859865e-14  -1.4201620121221113e-16  -1.7956528722143348e-14  -2.9925191707086118e-15  -4.1662883825879517e-15  -1.1256055400867851e-13  -3.8080867644460013e-14  -9.4602409037252950e-30  -7.3468688758822208e-31  -2.9786398737491217e-19  -2.9304756329965240e-18  -4.4220825500265540e-18  -3.5601867667718532e-17  -1.9235291001773100e-13  -7.6636600713235058e-25  -3.2192818178623550e-28  -3.4857824516508998e-17  -2.3863550044366569e-29  -1.7120249138682044e-29  -3.9607156434577308e-31  -9.9954545042236702e-24  -1.0755252566588833e-30  -6.3450396360196032e-16  -1.4574272349886728e-27  -6.1931886184509024e-19  -1.1425040509553922e-26  -5.0114119370312675e-27  -5.1246742791060594e-15  -6.9672974818522674e-15  -1.0455806379924498e-28  -9.7990901743397706e-20  -8.9939504823302306e-33  -5.6281557706541678e-14  -9.4280824651423936e-24  -2.9815310234901986e-32  -5.9795751304097861e-14  -5.6210000470845743e-14  -4.3733095699874444e-21  -3.7990875364286583e-26  -4.5223614861497189e-19  -7.0664014549358971e-17  -4.7667151657654367e-32  -1.0464333728460460e-14  -3.8438715187103365e-29  -5.7324197053723818e-27  -6.4345574445641110e-17  -3.9099175072761132e-26  -3.3225578761947179e-13  -2.4969519617785606e-19  -2.0435971228444212e-24  -3.2219181081920339e-23  -2.1971211773782283e-21  -1.4402828369625172e-28  -1.6377688702800140e-23  -8.1961896528609493e-22  -8.2885640124984186e-17  -1.9827502982200603e-22  -9.1266255511421748e-25  -1.0935851879764224e-28  -1.0286916220177222e-29  -8.0198222240185016e-24  -8.7418644060547999e-16  -1.0896210940586898e-28  -3.4135307598039754e-30  -2.1188261566728378e-18  -1.4583137840326776e-34  -1.7350995481050559e-28  -3.1516799980302341e-33  -1.7621163598466848e-27  -3.0288841835277510e-28  -3.3975287950256462e-29  -8.5392981896088418e-19  -2.2006742163421898e-28  -3.5286032218677746e-31  -2.3949476097017466e-24  -1.1742014123531899e-22  -1.3228592867247715e-30  -1.3674981594706840e-30  -8.8474727117713736e-31  -1.7315261370708456e-14  -2.5978460915359103e-15  -2.9998436660857455e-16  -9.6876510206213887e-29  -2.4160094665646149e-13  -2.7534731339989201e-16  -5.7216482405716579e-26  -5.8755493069599560e-22  -2.3224727956412752e-28  -6.4524289221711835e-15  -1.2729403444777525e-25  -8.1928799970530886e-33  -4.7708885597641487e-15  -3.9600180640929617e-21  -1.0647446362657746e-13  -2.8046046654047287e-13  -3.3685592340159288e-31  -1.6415066330002942e-34  -1.2320405364849056e-35  -1.0283683337687873e-35  -1.7100250560282216e-17  -8.4770281671126655e-30  -3.6473058952059033e-13  -7.7612691684808675e-32  -1.9333311547299140e-33  -5.5844879390949438e-33  -5.8803901972528389e-24  -1.1085250164716894e-25  -1.8460643828561981e-19  -1.1979377068512302e-27  -1.7446812980659967e-19  -4.7004136637130592e-28  -1.1950893253548388e-13  -1.7268963148616017e-13  -2.2118691053887690e-13  -4.6501558375108013e-29  -7.2368745004672411e-15  -1.2761241993110923e-14  -3.4749862328981196e-13  -9.9583445569547423e-23  -3.0542211426925187e-16  -3.0676653336960909e-16  -8.6467214738470891e-24  -1.8229197990940853e-17  -4.4984854878994050e-18  -1.0389653678296520e-18  -2.2813821055372003e-16  -2.6360447536931087e-13  -3.7099627890244669e-13  -1.3234595554967529e-27  -4.8554020345547483e-24  -2.2713555582395433e-22  -1.3142186503456887e-26  -8.4160764762698383e-14  -9.3946150919868033e-30  -5.7382880975550819e-18  -1.3924620492808027e-23  -1.0630697039398382e-16  -4.1280267972013617e-14  -3.5916877852381290e-20  -1.0862539306942656e-22  -9.9869676859469384e-20  -5.0375855265198572e-15  -6.7863833944085186e-16  -1.6461937868970632e-25  -2.5963339603236933e-28  -4.5619263952430828e-14  -9.1168027108752618e-27  -4.6814244925743206e-28  -7.5969408628485413e-18  -3.8577108245318182e-21  -1.2575440607616142e-14  -3.6172477844547526e-22  -6.8418105800296316e-14  -1.6721414852345713e-28  -2.4658761427418758e-19  -7.5546219271236999e-20  -2.2882681899621953e-26  -3.4783310936810074e-24  -2.4930136537052164e-24  -8.0758095791159223e-26  -2.9260994192997160e-25  -2.4545488619141325e-24  -7.6207605525430294e-17  -4.4425931563885626e-24  -2.4179239919031674e-20  -1.3520121719106584e-17  -3.5807895029659614e-21  -1.5559632082840095e-21  -4.4940821087693958e-28  -3.9205411459081172e-19  -3.3124881365610678e-23  -4.9309741093589773e-24  -3.3380342396180984e-23  -2.8568385046806256e-23  -1.7986930719498468e-18  -8.8211507729759555e-19  -1.0029372553104093e-19  -1.9802944969887896e-16  -1.1924722539753780e-28  -5.6144935565999055e-26  -2.3307903164098375e-26  -5.0065249675981203e-25  -1.4839288169990656e-24  -1.9228384796440319e-25  -2.8421511706116821e-28  -3.2558917207023979e-21  -1.1941483239997015e-20  -4.5469560174352089e-28  -3.0634437372981095e-30  -6.1939084909599208e-27  -2.2524437619726509e-20  -2.6577653403825961e-17  -1.3740820987674286e-15  -4.3762057167999487e-21  -1.0173965725394876e-26  -1.7778668558489837e-14  -1.3043809383386492e-19  -3.0621820787252773e-29  -1.2841460356565731e-13  -1.9191760701011981e-25  -2.568125