<?xml version="1.0"?>
<VTKFile type="UnstructuredGrid"  version="0.1"  >
<UnstructuredGrid>
<Piece  NumberOfPoints="6486" NumberOfCells="12696">
<Points>
<DataArray  type="Float64"  NumberOfComponents="3"  format="ascii">0 2.5 0  0 0 0  2.5 0 0  2.5 2.5 0  1.25 0 0  2.5 1.25 0  1.25 2.5 0  0 1.25 0  1.25 1.25 0  0 0.625 0  0.625 0 0  0.625 2.5 0  0 1.875 0  2.5 0.625 0  1.875 0 0  2.5 1.875 0  1.875 2.5 0  1.770833333333333 0.7291666666666666 0  0.7291666666666666 1.770833333333333 0  0.9375 0.625 0  1.875 1.5625 0  0.642361111111111 1.163194444444444 0  1.341594827586207 1.883979885057471 0  0.46875 0.46875 0  2.03125 2.03125 0  0.3626104797979798 1.513178661616162 0  1.381740196078431 0.4564950980392157 0  0.9375 2.172619047619047 0  2.172619047619047 0.9375 0  2.096354166666667 0.4036458333333332 0  0.4036458333333333 2.096354166666667 0  1.684027777777778 1.163194444444444 0  0.3418803418803419 0.8693910256410255 0  1.642742622813391 2.162164207604464 0  1.275619849389031 0.8465650753054845 0  0.9136284722222221 1.434461805555556 0  1.732437511238546 0.3406962303960658 0  0.9714402568595876 1.029779313093998 0  1.52281746031746 1.485615079365079 0  2.1875 1.71875 0  1.06819722569879 0.2997236128493951 0  2.136114211309524 1.303478422619048 0  0.3125 0 0  0 0.3125 0  2.5 2.1875 0  2.1875 2.5 0  0.3200021620376328 1.192323085056694 0  0.6738456129277992 0.8304377375553881 0  1.757891808928991 1.861952730357003 0  1.5625 0 0  0.9375 0 0  0.3125 2.5 0  2.1875 0 0  2.5 0.9375 0  0 0.9375 0  0 1.5625 0  0.9375 2.5 0  2.5 0.3125 0  0 2.1875 0  1.5625 2.5 0  2.5 1.5625 0  0.7448220909826522 0.3003573636608841 0  1.027298850574712 1.871151477832512 0  1.331260495098891 2.197262878816185 0  1.207917681892289 1.582765010956622 0  0.4339993447432606 1.801186844743261 0  0.6337298768939392 1.443093039772727 0  2.049851190476191 0.6826636904761904 0  0.6584821428571428 2.219122023809524 0  1.89575676467455 0.9798457973793544 0  1.437570562095628 1.059380588255917 0  1.502090052505845 0.6987070896496241 0  0.2040860661083546 1.705323965099331 0  0.2083333333333333 0.46875 0  0.5070952039991439 0.2211150679997147 0  0.6916302856529919 0.5813591430410241 0  2.265625 1.953125 0  2.2265625 2.2265625 0  1.886424081252096 2.243391360417365 0  1.40625 0.202164758520858 0  0.2269345238095238 0.2269345238095238 0  1.152730869673694 0.5225850378741401 0  1.885631899587912 1.312095130148776 0  1.614808884009367 0.9049784971014416 0  1.890095442220658 0.5126535558463003 0  2.323168682795699 0.46875 0  2.268811725689575 0.2304742875213018 0  0.6002389442105756 1.967426444210576 0  0.1768313172043011 2.03125 0  0.2311882743104251 2.269525712478698 0  2.03125 0.176831317204301 0  2.280262553344767 0.6954945504579233 0  1.979219539285994 1.809922269642997 0  2.336309523809524 1.09375 0  1.09375 2.336309523809524 0  0.9314042474388009 1.662973812215543 0  0.1634067999087722 1.40625 0  2.337090640094896 1.40625 0  1.141616997467638 2.069311773587991 0  0.46875 2.338939559681489 0  1.542440307908715 1.734944797244472 0  1.556713687786879 1.956977865354753 0  0.8264238995344066 1.975424467820646 0  1.466326331454725 1.275271369760862 0  1.655675324257095 0.5444159974393489 0  0.3385416666666666 0.6479255698005697 0  0 0.78125 0  0.5236073939200119 0.984090461540625 0  2.091665741047893 1.519793517904215 0  1.71875 2.5 0  0.5356538886262603 1.623137930505009 0  0 1.09375 0  0.1932884281517095 1.015625 0  0.8569313582417669 1.2198915584249 0  0.8876981284879677 0.8329884081524883 0  1.115618488474214 0.7219586973356271 0  1.186950366204949 1.043465130075318 0  2.057459118787237 1.110823087309335 0  1.830651283878689 2.049810069572418 0  1.689107969301489 1.367247437031697 0  0.4921048768039656 1.298643370653124 0  0.8213975694444444 2.336309523809524 0  2.03125 2.5 0  1.049729400480002 1.283723261332814 0  1.308101375801673 0.6489479469700392 0  2.5 2.34375 0  0.4968777175037714 0.7562964879736076 0  1.40625 2.5 0  1.501347663534097 2.307027627307738 0  1.602813712048603 0.1926218191360736 0  0.8393082906308107 0.463778306132633 0  1.682663349152719 1.598471865581041 0  0.7774174680851571 1.560004941327907 0  1.554204170364662 0.3898593897892066 0  1.842184459051087 0.186443880058197 0  1.358107417651776 1.696381759610015 0  1.18859291992392 1.77598670078022 0  0.1875331222687418 0.7609599743339348 0  1.339536743965101 1.422080365801479 0  0.7788179348750389 0.9955343414928611 0  0.9062978492805438 0.1919636509126373 0  1.256007360640958 0.3160320559396114 0  1.09375 0 0  1.174986727221844 0.1594990293443933 0  2.34375 1.796875 0  2.318026474511116 1.589177949022232 0  2.34375 2.5 0  1.672742954892153 2.332882724550692 0  0.2683637361947215 1.874801596909639 0  2.174770749820102 0.5581009131310781 0  1.443279522965991 0.8870068372898454 0  0.3385416666666667 0.3571428571428572 0  0.78125 0 0  2.060421048269335 2.314363248763811 0  1.088078737088509 0.8967352118723447 0  1.087825368444708 1.454931510884769 0  2.018308232129541 0.8548495425854904 0  1.943987311736842 0.3246298523011434 0  1.71875 0 0  1.85337849796276 1.144833312386208 0  2.3486328125 2.1044921875 0  1.407588788651747 2.042968789119587 0  2.336309523809524 0.865366648092144 0  2.34375 0 0  2.5 0.15625 0  0.15625 2.5 0  0 2.34375 0  0.1638044648294291 1.242263417405867 0  0.356216654757926 1.032569427322806 0  0.3188217956111817 1.355736727000647 0  0.5924956460852111 0.36112522004736 0  0.6594216488965849 0.1603472116132387 0  1.841804599497131 1.72214349266521 0  0.15625 0 0  0 0.15625 0  2.115898634821499 1.894570904464496 0  0.7821877980253907 0.7129993435924866 0  1.003820447087786 0.4516053462784233 0  0.477562948779147 1.138333049293613 0  0.719493678605015 1.305655360135975 0  0.9772457618587566 2.020350128938537 0  0.8764738248887107 1.826219722709673 0  1.254787875123819 2.339010653832026 0  2.343597354852534 1.249982759769001 0  0.78125 2.5 0  0.46875 2.5 0  2.5 1.40625 0  1.09375 2.5 0  2.5 0.78125 0  2.5 1.09375 0  2.03125 0 0  2.5 0.46875 0  1.40625 0 0  0.46875 0 0  0 0.46875 0  0 1.40625 0  0 1.71875 0  0 2.03125 0  2.5 1.71875 0  2.5 2.03125 0  2.005424054645407 1.653223486966518 0  0.1538730573856537 1.559850281736677 0  2.33984375 2.33984375 0  1.166539506212474 1.922878979538754 0  0.3914885633949916 1.65887232812171 0  0.5795503163042564 1.766243562569382 0  0.399533125920212 1.946786875081388 0  0.7866324979014098 2.127719094551316 0  0.3654683023546834 0.1495701132219454 0  0.1527388747131078 0.6116379440619215 0  2.013737577140188 1.391056634712135 0  1.17635437372994 2.213329084238133 0  1.737118141866284 1.010577140843115 0  2.200707118087222 1.164723314085963 0  1.697018908736685 1.993548551451517 0  0.5387621649009668 0.6070503962352419 0  2.032805785855952 0.5330427622570983 0  1.082699501358059 1.667818725183932 0  1.503819781540653 0.5468420196858188 0  2.015409142866072 2.175941657590429 0  1.752057611265444 0.869642097111018 0  0.612251684107783 2.356045720700959 0  1.902817102342857 0.6607642211999982 0  2.159616561739693 0.7867739969338844 0  0.5120038350106624 2.197302352398502 0  1.888200216011548 1.919501662489862 0  1.495909909726654 2.16028358757309 0  0.489139876703609 1.443203008943564 0  0.8819175670410521 0.3301172743913011 0  1.882591144370812 0.8155965192707721 0  1.133979796994841 1.172526771862882 0  2.206217447916667 2.084147135416667 0  2.20361328125 2.36279296875 0  1.395746985657004 1.556054166359645 0  1.704383111516207 1.734750450338683 0  0.9575737847222222 2.36274223823052 0  1.035150984253136 0.1302833343179028 0  1.383966125325753 0.7651479963479179 0  1.64003252158672 0.6824316405528895 0  2.22550785055421 1.487078576356817 0  1.760964431499756 1.48495222505201 0  1.276460980673788 2.004207003584658 0  0.1341477688427096 1.828777507920502 0  1.542261434180652 1.155296658359034 0  1.334627911613854 0.9696897472490321 0  1.30794231473696 1.119420615785191 0  0.7028260459857245 0.4438906910721139 0  1.625757433094055 1.84268057552138 0  0.9818707849053143 1.165603626132254 0  2.0086489901463 1.243134585689553 0  1.934584460420609 2.374094051915812 0  1.798434376789567 2.38671361912528 0  1.206314791201715 1.382064292497919 0  0.6333752893366955 0.7023738550008095 0  0.7796219811205605 1.42573253164258 0  1.564399711917382 1.026040828857629 0  0.3385416666666666 0.4889012896825397 0  0.1041666666666667 0.390625 0  0.989112246382566 1.543537365516289 0  2.025724425454636 0.9846960595520872 0  0.6602885475034063 2.086117390485779 0  1.607130551925032 1.267198646640915 0  0.1317864544877056 0.8896173683400176 0  1.755387840017567 2.230364320056445 0  1.301540702984401 0.1216289692748247 0  1.433170657577442 0.3331052752740999 0  1.500459610550388 0.113513924782439 0  0.6494291520606965 1.029586599619295 0  1.010146149868299 0.794897284196169 0  0.3700844198238017 2.235390157870766 0  0.3360891767780704 2.36656279435396 0  1.876856241037701 1.437150669863757 0  1.778674102957329 1.245979347269706 0  0.5472829890977179 0.1005517127039925 0  0.4669074189005698 0.3416784232954367 0  1.472765289289269 1.850899166481903 0  1.555853593327178 1.608452097912802 0  0.6708955559113426 1.646561631116984 0  0.8164699620322933 0.5924479455478063 0  0.3167738989468366 1.758696809749795 0  0.2788007305565096 1.605499483471246 0  0.7821720982350511 0.181524936294752 0  1.376812251214195 2.313340247908297 0  1.785652202614777 0.5962261755537186 0  1.761467296310972 0.4679567244718574 0  2.2265625 1.8359375 0  2.3828125 1.9140625 0  0.5279531607054191 2.071552361614785 0  2.397573269551114 0.234375 0  2.383578172599618 0.3589298466020009 0  0.1024267304488855 2.265625 0  0.1164218274003825 2.141070153397999 0  0.2696857594953064 2.135405441512016 0  2.164961300137334 0.1375322943529536 0  2.137757548369486 0.2724194778647587 0  2.238873711826398 0.3626419179496562 0  0.1001414910226386 0.234375 0  0.2176339285714286 0.3478422619047619 0  0.2503620791333544 0.1061694061057066 0  2.336445461915368 0.1250451055247424 0  0.2154004640409726 2.3918124
[...]
<PointData  Scalars="f_49-2"> 
<DataArray  type="Float64"  Name="f_49-2"  format="ascii">3.4607194989208425e-72  -4.7058258563484505e-22  1.5740265730236323e-74  -1.5190519923013370e-89  -1.3679713344388428e-44  -2.0790280833840048e-79  -3.5221888884435040e-79  -1.9040307282560728e-40  -2.9527107973767664e-49  1.8058542720165393e-25  1.9591268544994277e-30  7.4933351604925208e-76  2.5796611219694208e-56  4.2759783846624311e-80  -3.4188262994002171e-61  8.8569615053782266e-85  -4.2726558110800786e-83  2.7557150956258125e-59  1.1125697071829243e-57  6.2382179933279847e-36  4.1457795661959903e-66  -1.6301414334205903e-41  -4.5728194066284115e-63  -2.8375680603039394e-24  -9.1487281294588534e-75  2.4945214401738924e-49  2.2455834770835408e-48  1.4015977040995513e-69  6.2540373051087851e-70  5.9017660119047430e-69  3.2672900432346998e-65  1.4961759983304512e-58  -1.3943052396813776e-32  -1.4548776440733270e-72  4.5046258011421613e-45  -4.7111670556136537e-49  -1.7718982380176138e-58  -8.0648144808267312e-41  -5.9187004017497297e-57  7.9635036196907977e-75  1.0351477369320339e-40  -4.7712205384289094e-71  4.4475610029276144e-25  2.6274039122978812e-21  -3.3722526823607220e-86  -1.8473562824035188e-86  1.0032734150874908e-40  -5.3188429983490250e-33  -1.0300157758995679e-68  -1.3291300157705728e-53  5.2183271750850907e-39  8.4003517604422943e-75  4.0142188775740786e-68  2.1145904164737077e-79  2.0877093940809263e-33  -5.1605220564125976e-49  -4.5877515333350941e-77  4.3216429545343495e-78  1.9518243963872464e-64  -7.3699934930482304e-81  1.0327141229828722e-81  -9.5315451591443618e-32  -1.0026587182281014e-60  -6.4239088381208836e-72  -1.8309002415039047e-55  -2.2241344596000767e-56  2.0620762386734588e-48  -7.2849810250131081e-67  -2.7404540894133289e-68  -2.0749720048631322e-62  1.0035197846944522e-50  -1.6818686154247575e-51  -8.6084884042017686e-53  -8.4723398362407880e-22  -5.1136653483781440e-28  -1.0720356469055269e-29  -1.2929212300660132e-78  -1.5397327436647939e-81  -3.0581002414855413e-77  -4.7533815395161692e-50  8.1086945424440467e-20  -2.4354148350501673e-41  1.3825819089098184e-64  -1.0655428747622252e-54  -2.0986126350702014e-62  3.1738517265170847e-74  -1.0611758286203418e-71  -1.1578216100222576e-61  1.3424422772160695e-61  1.4102078377299812e-68  -1.4345602033892039e-65  6.0433112437944888e-75  -1.0986441939224579e-70  3.4239550384238247e-77  -2.3799056693638799e-73  4.0363178735044317e-56  -1.0503691676952273e-44  1.3012728804194314e-76  -8.5702385308403904e-67  2.0535928997916841e-71  -5.1786847012602946e-62  -1.7692382973199578e-67  -7.9255347489665539e-64  -3.9227709642096155e-53  -5.2964822168630385e-56  -6.1375894068862940e-27  8.3450250723365205e-29  3.8053887354769643e-38  2.0988321050427609e-72  -1.7087823796634726e-81  6.8891658575241635e-53  -8.1147371075604003e-37  3.4124664597798174e-35  -1.0459008224074375e-43  -2.0928984252465456e-36  1.8777114436097771e-40  -4.2714809690160699e-45  -5.2094007366054535e-67  -4.4832913138218488e-72  -2.4613619885803079e-60  2.1897526318778749e-43  -3.7353328081431540e-72  -8.6367859916100106e-85  -1.3439751952037694e-47  -2.1670754325885096e-45  -6.4236094437893920e-88  -4.8153119225411093e-30  -2.6889278642224461e-79  -2.3263964246631994e-75  8.2239089096490327e-55  1.3065185894650169e-32  -9.3043052294682729e-62  9.5798712967179269e-53  -3.1984278391517836e-53  1.1733471421221044e-60  -1.0415357492545270e-59  -3.4876798765701079e-59  -3.5866266149377872e-30  -2.7914372523192717e-53  -9.6446323781409417e-38  -1.4447496798154485e-36  1.6086092049116639e-45  -3.5039943273471428e-43  -8.4408029528882485e-44  1.8729802775090743e-79  -2.3560129198194097e-77  -3.4388388022196370e-88  -9.5548666178187285e-77  -6.2568707175290681e-58  -4.9459289266367848e-71  -2.6808544205745995e-50  -8.7025889903862413e-21  6.0785709654752533e-34  -5.7218081784971280e-81  -1.2623292630869741e-41  -1.9227295121991446e-51  1.2947962083363141e-66  3.5341933392797627e-65  1.0523900478698401e-56  -1.8562824217067329e-62  -3.1208684941947843e-82  2.0939488770590469e-68  -1.1145130619192051e-74  2.9619096931484910e-71  6.8457131257484032e-76  2.8723958109053978e-73  5.8806212191722833e-69  1.8033723496423213e-41  9.4208937517893233e-37  1.7058520563043762e-44  -2.6441169344260000e-28  -3.9193580198601005e-32  -7.0627131505188006e-67  9.3886871059286455e-23  -4.0031775399399036e-22  -6.2548067026783764e-75  -5.2575070202804642e-33  -3.4050302223090927e-37  -5.6922238131808873e-40  -2.5449825318822241e-45  -1.9335098345082471e-65  1.3927956099105019e-59  -7.3285517932022735e-75  -5.4439462668659040e-76  -6.1885370845456792e-78  1.2012612910944896e-75  -4.0660982636001436e-81  -8.8696410073991828e-78  -7.0908508985047389e-80  -1.2369837167220374e-79  -2.0851888766495235e-65  -3.8967012309858753e-79  1.0351590834412104e-49  6.5820648558071456e-28  1.4658534761094881e-22  -5.8157417159035592e-44  7.5862501389247392e-53  2.3030871836925466e-60  -1.8383491737438089e-82  -2.0616715530468309e-85  8.0176938970758654e-70  -6.0220295872218756e-49  -1.0248525291182140e-84  2.0271123624692622e-63  -1.4445654946593339e-52  5.4634170540800105e-57  -3.1890507879606632e-61  -1.0679344000108884e-67  1.3927692783856807e-24  -8.9156443380115851e-27  -7.6472293724606622e-69  -2.4958042579448535e-70  1.0375257962579207e-59  3.6906708173904595e-72  -3.1694149443911309e-69  -4.1665594640493821e-27  1.4994146250919651e-67  -7.6398203792176713e-56  1.6028362999600540e-52  -2.3823337776383562e-77  -5.2033366097460972e-58  -9.4471452292309841e-73  9.3169158908291856e-63  -9.2946870288174854e-70  -2.5769023759333768e-67  -3.2650387066493880e-71  1.1274747163029417e-71  1.3568141525424989e-47  -2.8264063175679032e-35  -2.3804585291897017e-61  -7.1645774181618147e-46  -5.5054128809079253e-79  -2.8777205410584770e-84  -1.7157227739210929e-56  -7.0238056625760387e-65  -5.1059684823889750e-75  -3.2821815560407393e-40  -3.5681959435477151e-48  3.7122146219255002e-55  -6.3621465113147885e-74  2.5192609342473481e-62  -2.6456610317951846e-66  1.3615871330231257e-56  4.6325857268502840e-54  1.1080951489731353e-47  4.3732764760569900e-49  -4.2828074069752469e-30  -3.0795146151602940e-65  -1.7256336380145627e-43  -1.3942878313253006e-66  -3.5855172808413919e-81  -4.4660799973313012e-80  -2.5543342039706515e-50  -4.5206408687870969e-30  -2.1572148628226343e-48  1.6242338771192702e-53  -1.3892442137782647e-22  4.8444215983481484e-21  -2.8424965066070361e-52  -4.1543901704938395e-66  -2.8116219944073330e-65  5.4756259875630823e-57  5.4292157219289682e-32  -1.9310091704389127e-75  -6.8207447283042134e-47  -3.7574303872612088e-50  6.1345273731114312e-53  2.4720313323689957e-38  -8.8982513878272222e-40  3.6050442682033792e-68  3.8247769692041319e-72  1.0985560428612019e-65  7.5379084036837668e-62  -1.6523596083681239e-28  3.0841300927118068e-24  -2.4357687962258230e-64  -1.9774223392133568e-60  1.9578109230855836e-54  -4.4164235841719365e-33  -3.3555667738551754e-55  -2.6564984702570805e-50  5.2150906855437831e-34  -2.5957120175952525e-75  1.9709463913557503e-59  -7.6396139156934750e-59  2.6601811880231196e-77  9.8542604561552077e-82  -1.0327841017567913e-63  4.5686085341511229e-75  -2.7891114538622002e-75  3.1324778331771594e-67  1.4180005391769368e-63  1.0856622183327945e-64  -1.5745727885838299e-68  -6.5078674441969791e-69  7.0065132790374055e-72  3.2783270002946825e-19  -3.5534366126877388e-19  6.4906305335059081e-23  2.6798078935535907e-72  8.8501303577401374e-71  -1.6602034829760916e-71  -2.2520271488890776e-21  1.2761361520314797e-57  4.6456613521267015e-39  -6.5893761429403494e-43  1.8844957886148291e-45  -1.1871017150563196e-61  -2.7688070616385284e-59  -1.9622786375882832e-40  1.0020538186279051e-58  7.2801261640590536e-63  -4.0336959136537885e-77  2.2941937579172359e-77  -3.3812316961856222e-84  -3.9835091548774524e-27  3.8814060989470681e-61  -4.5295267404253759e-59  -1.7421856926354330e-52  -1.1286727173326861e-73  -1.6602553065086025e-55  -3.1750942542415772e-64  3.2018548274754056e-33  3.8719592635071548e-56  -3.1473969668098735e-58  5.1113442659828140e-71  1.3089724780015663e-35  -2.9056283558179248e-72  -2.1525773731269318e-69  -5.5318824027155450e-39  2.3694821196260493e-76  5.4490184529490710e-28  -8.2989547676678852e-44  -2.3897651081541853e-72  -1.5810703144157578e-72  2.8715758164293356e-65  -2.9845164270443453e-76  -1.8552304289806196e-47  -1.2723627392099341e-42  3.1317899197254849e-79  1.0771013952995498e-74  -4.0490404251600227e-40  -1.5124733708463072e-55  -1.7221621961657932e-55  -1.0525789374451618e-74  1.2627906097190201e-58  -7.6808947653754369e-80  -2.7002128983318479e-70  8.3150556822316143e-52  -1.0702345889836152e-74  -1.0551481531613405e-46  -9.5423407982502716e-31  -5.9728514526345823e-25  -6.0376617272757249e-25  -2.3431823574622712e-56  -1.9118032889132539e-51  -9.5941400321682653e-39  -1.3997246911735199e-78  -5.5183369535762313e-78  -5.4949284769359639e-77  2.0916453127062938e-70  -2.8435276347785067e-87  3.9426721317850681e-68  -3.3114688666141984e-71  6.5332330799407467e-48  -2.4725688770176140e-84  -5.0355264893614246e-53  -4.0957789437935995e-72  6.2865657315338378e-67  1.3508061542816940e-62  -3.4834832440660896e-51  -4.3640597589150369e-46  1.2725041371995945e-22  -9.9549215107004241e-80  -1.5067436844810832e-59  -1.8806953947072715e-43  -9.3749199541981277e-45  -1.0965937042403902e-79  -2.0274042751555436e-34  -4.3214466113788628e-36  -1.4148467925960887e-34  -4.4944141726776372e-39  -4.0116979818094525e-64  -6.0303038086842779e-46  -1.7947276208279883e-59  -9.5814314576472549e-54  -2.7500324609606966e-63  1.4167810626028795e-68  -4.3673550522704216e-74  3.7458507221635820e-52  3.2745603930083299e-46  6.6430020840739427e-29  -3.1422410136897147e-70  1.5165946008971528e-33  -8.0138490696540351e-38  -4.7685073018519552e-77  -8.0298198742636716e-55  -8.5253081822652314e-56  -5.9728606669640891e-78  -4.6219301130411945e-49  -5.1165470925097261e-24  7.9578520755351550e-35  -2.0713415359128793e-64  -1.2942699467233137e-68  -4.5862255922882255e-55  8.0491484188315521e-69  -9.5095509439400498e-78  1.3090171529198366e-51  -9.0286123057657971e-32  7.8405790672825318e-73  1.4985574476906506e-42  -1.4537029552651989e-44  7.0099774300184664e-43  9.0192582202816143e-71  6.5056802850391200e-55  1.3959609684470701e-50  -8.8723742576430015e-64  -2.8556590986993166e-27  -3.6919693194287782e-39  -8.0244693550383839e-77  -8.6502856969169293e-48  -1.8846067812273294e-65  -7.6274152284560897e-69  -1.5243962111778740e-73  6.4553774564090708e-46  1.6194215527299354e-41  2.9592510179553059e-59  -2.1490314593725150e-64  -1.1653194535594015e-69  -2.3834550280753587e-73  3.4591216916220490e-32  -2.3458282939539239e-53  -7.8348241554873758e-75  -6.4696549566176213e-71  8.3380769647433431e-66  -4.1906671087420860e-46  -5.7190073185379229e-64  -3.5302804755020545e-49  -1.2204321928288579e-68  1.3811153285092155e-33  -3.4728301285927040e-73  -7.2390473253821385e-54  -1.3430955511180978e-41  2.9470643994706732e-60  -2.3356454882124251e-86  -4.2327296637386423e-35  -2.3708038932901775e-62  -1.2656674508684396e-48  1.2617478820797835e-38  1.5187299248430599e-69  -2.8741554510380483e-57  4.3149330506508864e-37  -4.7361274729135144e-73  -5.2408964509987150e-82  3.7410422509175443e-73  -2.9423881375781417e-78  1.6971106207799806e-38  -1.9295870461791164e-29  -5.0754430894662319e-50  1.1064099205907054e-29  -1.2712013316432792e-61  -4.6867253839359623e-55  2.2311234437079652e-42  1.2822851641441294e-66  -1.1618384407207343e-65  9.9048641373903315e-46  -2.3910879480520026e-72  -4.7301795793461228e-35  -9.0124674846848597e-54  -6.0630739369079098e-27  4.6778628166217422e-63  5.9228799188462447e-32  2.4028601099963575e-34  6.6100207871520856e-43  5.7563547568617521e-48  -1.2838420985813856e-48  -1.3587713008964047e-60  -7.9794609136841870e-62  -3.7572481873531641e-57  -3.8033166903120849e-27  4.1795544602400155e-75  -6.8579877223488138e-81  -4.5693216550397481e-82  -5.9619018675037189e-70  -1.4569376020066461e-41  -7.0576547560579555e-81  1.0607476342521870e-31  -3.6772526177759146e-42  -5.6367807386588908e-43  -2.7309927023117767e-66  2.9077196776632973e-50  -2.3457098375884276e-50  4.5924744824397594e-72  -2.0086862598644777e-52  -1.0464942795993752e-78  -3.2381238499719924e-76  2.7397538205045554e-65  -4.1487422683695624e-75  1.1459748903669558e-58  -9.7536597289906656e-77  -1.4035299150799945e-65  1.7631013299913885e-56  -3.2594543156645033e-46  4.1003673992322377e-27  3.4102581486540379e-80  9.2395339852183047e-77  8.4811825921236019e-78  4.5745131318539522e-38  -4.7503909267414472e-58  -3.5802053111363794e-55  -3.1669285482584662e-60  -1.0279198439961966e-82  -1.7259690760439257e-38  -2.3794561359515101e-69  7.1658423189252577e-37  -2.7180011395444031e-37  -3.0914687909265612e-66  2.4642286174887065e-54  -1.0904598056322133e-61  1.9031547104036685e-73  4.1868210500407810e-73  -3.2029345905546311e-43  4.4003694782889319e-33  -4.8806566588991486e-49  1.6863055678389245e-75  -1.0930561745855441e-68  -4.8469167107721565e-61  -5.7063477279453262e-60  -1.8425704358581084e-61  -4.6680128595248135e-67  5.4046545578892273e-61  -4.7360739474172591e-74  -2.2520407744013695e-68  -1.4543148264413657e-45  2.8274192270151244e-80  -7.4429038714043061e-68  2.0827761808187851e-68  -1.6467318497083333e-64  1.9275836574471875e-82  8.8349371410658225e-80  -4.2086193058396598e-81  5.2560338107494660e-75  8.5472269913681873e-70  1.8757044631643473e-69  3.8352181946067550e-38  1.4437675794481835e-38  -4.6881593311492548e-56  -1.5618253060810519e-74  -5.8471810324679922e-79  5.5590465286007454e-59  -3.0723139178844417e-84  -8.4787714959089674e-81  1.9551923834832666e-47  8.1597420665884707e-50  -4.1430870072966862e-73  1.2179961734928941e-65  -1.0340180286580307e-56  -1.1846116527796168e-35  -4.6396631391487949e-69  3.3697122554103865e-73  -1.6330938633503162e-70  -7.5740474454101581e-20  -1.4241703709543744e-20  -1.8691361829834557e-22  6.4419359581240526e-62  2.9868964016057601e-74  -5.9294152821044815e-63  2.9056575659998106e-31  -9.3345034270768539e-78  6.5562188921242657e-69  -4.8104187590306007e-52  1.5452550445140289e-57  -4.8399730283991181e-71  -3.8640908367905569e-86  4.7910337167182027e-59  -1.7601623356355111e-77  -3.1659987955028283e-83  -4.9720264591692345e-32  -3.0544208469185182e-50  -4.1184444503451084e-59  4.6083752795300394e-74  -3.3121960002495301e-77  8.8273629970590859e-58  -2.8120736016838792e-67  -6.5807077776604440e-29  8.6342344736763319e-55  8.1199123739111878e-85  -7.5856666239774407e-51  3.1129578575584660e-35  -2.3380641115206266e-46  -7.5702491322260495e-64  6.6077156586371725e-43  -5.4498824038263678e-47  -5.5670877781465604e-40  -4.5076649729852920e-74  1.0639154527076885e-61  9.2234155611641588e-22  -1.2664667141960998e-45  3.3191739742551896e-29  8.8498401871961394e-31  1.5051795785337727e-31  -9.1358538638760443e-27  1.2044667982283661e-25  1.1762844801515132e-78  2.5189355272675687e-80  -1.9688070810514920e-52  -1.8100360777040576e-50  -1.6785420103962454e-49  1.0841865052203486e-46  -1.2873645929289846e-18  -1.6370154693466228e-66  -4.7299474330824889e-74  9.0548865628026943e-41  -1.3312056440200764e-76  -6.7143525878975467e-73  -1.7863408449350686e-80  -2.0955992526948358e-65  -2.3173243606831666e-79  -7.8109494768308477e-42  -1.1036752304407151e-72  -5.3773774512550264e-50  -9.9707005293409380e-73  -9.3560968807131955e-75  1.1479696634418305e-22  3.1996883185964831e-22  -5.9493495250153340e-75  3.3371567905393623e-48  -7.3949475758637590e-83  -1.7919975042798375e-20  2.2019479183449614e-62  -8.2948898950991143e-78  -6.1440677348423457e-31  -7.9215086578769855e-32  -9.0019715801262799e-57  2.9633073116811067e-70  -1.4478644538342590e-53  -1.2986420597675650e-40  -7.7431660620782117e-83  -2.0969145119604898e-25  1.9894288086863539e-69  -3.6479021974169848e-67  9.8670091209708034e-40  -5.6463267710238536e-70  -2.4449621850159469e-24  -1.4702761771740196e-53  -1.4437482874877430e-68  3.2796428663948046e-66  8.3989757175929157e-61  -5.6340843583377946e-75  -1.0061302745044794e-57  -6.2316796371869727e-59  -1.4848075250415058e-45  -2.2942851344670609e-62  1.0297551458263563e-68  6.4016591690958906e-77  -1.2622429537461327e-77  1.4369742338070199e-66  -1.6686793879647988e-40  -6.6579191617891811e-77  -2.3992768864585166e-79  -9.1846365661352413e-44  -9.1263110116745364e-88  3.7768121662522330e-77  -1.0250691904736903e-85  1.3695913304765685e-70  1.0758586495335740e-72  4.5422507645660572e-79  1.5766689272825575e-51  -5.4380242468875862e-77  -1.5324570330028470e-81  1.0978642516130112e-59  -6.4439400585997596e-56  -9.9204496458241966e-81  -1.1305563143466660e-79  5.3349892131427505e-81  -4.2752296055754793e-35  -1.4009004099503908e-38  -3.3748607859623805e-42  4.7651683354622735e-78  7.0000264340476420e-27  8.1523914222746214e-37  -1.2179342453864130e-62  2.0787491164811442e-58  8.1519709012144665e-74  1.7247190129036152e-23  1.1329003799456484e-66  6.8531372720661508e-77  5.5775727367117403e-29  1.2471104602961268e-51  -2.0028901126732060e-21  1.7731693651618105e-21  -6.9796537850746336e-82  -2.9759223416367933e-87  -2.1828158207068315e-88  -2.2358109890059426e-89  -2.0367283023001708e-46  -1.1419360529097113e-79  3.0533969451521242e-24  -3.2485735673239451e-83  -3.1809644003529563e-85  -4.0572195230908655e-78  -1.1110900521587324e-62  -1.3392077099891931e-70  -3.3987387675929857e-54  3.1077595228068828e-75  1.5212729073438500e-50  6.6004683678360163e-77  -8.6554315221036116e-28  -1.1079032100358479e-28  -1.7848901516679514e-25  7.3142953864986477e-77  1.1169361280599802e-27  -3.6813444815429915e-36  2.6140611224659250e-25  -9.5358092751046423e-62  -3.5112934069529742e-44  -1.0835484565677770e-39  -7.8527176492762488e-68  -5.4086551055741166e-47  -2.9727260708821206e-48  -1.2900040206529577e-50  -7.9064749956140926e-43  5.0350666896561677e-28  3.7234127639137991e-24  -1.6350196554128928e-72  -3.1099298241200092e-66  1.5277337665704857e-63  1.7312895050480388e-71  -2.3202372636493629e-31  3.9936381793223100e-79  -2.1487143044937502e-48  -1.6897369252057558e-65  -2.6787688330215236e-44  -4.0038253885256857e-35  -3.7156608695754664e-55  -1.1155685539933540e-65  1.9782757572460903e-50  -1.5180046183767240e-38  -3.4312684673047713e-42  2.3498859990124460e-63  1.0632591295171566e-73  6.9169807094546804e-35  -8.5092238919497344e-70  -6.7923860309235439e-72  1.0097258477949138e-49  -2.7102214778214088e-58  -1.2752662765851730e-34  -6.5491627108340849e-61  -6.3109724864041044e-29  -4.5751097377563648e-76  2.2580290411270128e-54  1.4729751326583384e-56  -6.4756108044666966e-71  4.6227829919383777e-66  -1.8399976712255183e-66  -9.3221252557763925e-71  -2.6184482725149484e-68  -7.1688307443249758e-67  -1.3955531669252660e-44  -9.3742010392868085e-68  -7.2828739691443124e-57  -1.4861875205932895e-46  -4.4518837977720399e-58  -1.6047079277636826e-58  -2.0768958157686520e-76  1.1995411689703243e-51  1.7067934504497836e-61  5.1126810837217029e-62  -2.5182053316087031e-63  -2.3318704448660021e-65  -6.9048878052343257e-51  2.8164741241661002e-52  -1.9190687263985183e-54  -4.2483679611184608e-43  6.5747828232603703e-70  1.4645199203168939e-71  -4.0513392863847941e-72  -4.4593550790888865e-68  5.1856465648735424e-67  4.8371725377611315e-69  7.8193428597108592e-76  -1.8898062316029787e-57  -3.7170666921118795e-51  -3.7554045429475299e-75  -1.1411148465856322e-77  6.5968507969731605e-72  9.9443809343981510e-58  -1.5557842892329105e-48  6.9283498409032066e-41  2.5396221639609277e-58  -1.7070515783685775e-64  -1.1666541991437589e-34  -5.2492056541043170e-48  -2.5693290134808204e-77  -6.2773402343694828e-31  -7.1409949087913511e-63  -8.3909767759312688e-78  -8.1925805050432021e-77  -4.2128003829685101e-83  2.3794171928088759e-69  2.1614703921943425e-72  1.6457247383770857e-47  -4.7695293110571917e-58  -6.5146295267003140e-51  1.1750876627923952e-43  -2.7097182543424486e-69  -6.8320129976162532e-72  4.8452466235463939e-59  4.94801207052