<?xml version="1.0"?>
<VTKFile type="UnstructuredGrid"  version="0.1"  >
<UnstructuredGrid>
<Piece  NumberOfPoints="6486" NumberOfCells="12696">
<Points>
<DataArray  type="Float64"  NumberOfComponents="3"  format="ascii">0 2.5 0  0 0 0  2.5 0 0  2.5 2.5 0  1.25 0 0  2.5 1.25 0  1.25 2.5 0  0 1.25 0  1.25 1.25 0  0 0.625 0  0.625 0 0  0.625 2.5 0  0 1.875 0  2.5 0.625 0  1.875 0 0  2.5 1.875 0  1.875 2.5 0  1.770833333333333 0.7291666666666666 0  0.7291666666666666 1.770833333333333 0  0.9375 0.625 0  1.875 1.5625 0  0.642361111111111 1.163194444444444 0  1.341594827586207 1.883979885057471 0  0.46875 0.46875 0  2.03125 2.03125 0  0.3626104797979798 1.513178661616162 0  1.381740196078431 0.4564950980392157 0  0.9375 2.172619047619047 0  2.172619047619047 0.9375 0  2.096354166666667 0.4036458333333332 0  0.4036458333333333 2.096354166666667 0  1.684027777777778 1.163194444444444 0  0.3418803418803419 0.8693910256410255 0  1.642742622813391 2.162164207604464 0  1.275619849389031 0.8465650753054845 0  0.9136284722222221 1.434461805555556 0  1.732437511238546 0.3406962303960658 0  0.9714402568595876 1.029779313093998 0  1.52281746031746 1.485615079365079 0  2.1875 1.71875 0  1.06819722569879 0.2997236128493951 0  2.136114211309524 1.303478422619048 0  0.3125 0 0  0 0.3125 0  2.5 2.1875 0  2.1875 2.5 0  0.3200021620376328 1.192323085056694 0  0.6738456129277992 0.8304377375553881 0  1.757891808928991 1.861952730357003 0  1.5625 0 0  0.9375 0 0  0.3125 2.5 0  2.1875 0 0  2.5 0.9375 0  0 0.9375 0  0 1.5625 0  0.9375 2.5 0  2.5 0.3125 0  0 2.1875 0  1.5625 2.5 0  2.5 1.5625 0  0.7448220909826522 0.3003573636608841 0  1.027298850574712 1.871151477832512 0  1.331260495098891 2.197262878816185 0  1.207917681892289 1.582765010956622 0  0.4339993447432606 1.801186844743261 0  0.6337298768939392 1.443093039772727 0  2.049851190476191 0.6826636904761904 0  0.6584821428571428 2.219122023809524 0  1.89575676467455 0.9798457973793544 0  1.437570562095628 1.059380588255917 0  1.502090052505845 0.6987070896496241 0  0.2040860661083546 1.705323965099331 0  0.2083333333333333 0.46875 0  0.5070952039991439 0.2211150679997147 0  0.6916302856529919 0.5813591430410241 0  2.265625 1.953125 0  2.2265625 2.2265625 0  1.886424081252096 2.243391360417365 0  1.40625 0.202164758520858 0  0.2269345238095238 0.2269345238095238 0  1.152730869673694 0.5225850378741401 0  1.885631899587912 1.312095130148776 0  1.614808884009367 0.9049784971014416 0  1.890095442220658 0.5126535558463003 0  2.323168682795699 0.46875 0  2.268811725689575 0.2304742875213018 0  0.6002389442105756 1.967426444210576 0  0.1768313172043011 2.03125 0  0.2311882743104251 2.269525712478698 0  2.03125 0.176831317204301 0  2.280262553344767 0.6954945504579233 0  1.979219539285994 1.809922269642997 0  2.336309523809524 1.09375 0  1.09375 2.336309523809524 0  0.9314042474388009 1.662973812215543 0  0.1634067999087722 1.40625 0  2.337090640094896 1.40625 0  1.141616997467638 2.069311773587991 0  0.46875 2.338939559681489 0  1.542440307908715 1.734944797244472 0  1.556713687786879 1.956977865354753 0  0.8264238995344066 1.975424467820646 0  1.466326331454725 1.275271369760862 0  1.655675324257095 0.5444159974393489 0  0.3385416666666666 0.6479255698005697 0  0 0.78125 0  0.5236073939200119 0.984090461540625 0  2.091665741047893 1.519793517904215 0  1.71875 2.5 0  0.5356538886262603 1.623137930505009 0  0 1.09375 0  0.1932884281517095 1.015625 0  0.8569313582417669 1.2198915584249 0  0.8876981284879677 0.8329884081524883 0  1.115618488474214 0.7219586973356271 0  1.186950366204949 1.043465130075318 0  2.057459118787237 1.110823087309335 0  1.830651283878689 2.049810069572418 0  1.689107969301489 1.367247437031697 0  0.4921048768039656 1.298643370653124 0  0.8213975694444444 2.336309523809524 0  2.03125 2.5 0  1.049729400480002 1.283723261332814 0  1.308101375801673 0.6489479469700392 0  2.5 2.34375 0  0.4968777175037714 0.7562964879736076 0  1.40625 2.5 0  1.501347663534097 2.307027627307738 0  1.602813712048603 0.1926218191360736 0  0.8393082906308107 0.463778306132633 0  1.682663349152719 1.598471865581041 0  0.7774174680851571 1.560004941327907 0  1.554204170364662 0.3898593897892066 0  1.842184459051087 0.186443880058197 0  1.358107417651776 1.696381759610015 0  1.18859291992392 1.77598670078022 0  0.1875331222687418 0.7609599743339348 0  1.339536743965101 1.422080365801479 0  0.7788179348750389 0.9955343414928611 0  0.9062978492805438 0.1919636509126373 0  1.256007360640958 0.3160320559396114 0  1.09375 0 0  1.174986727221844 0.1594990293443933 0  2.34375 1.796875 0  2.318026474511116 1.589177949022232 0  2.34375 2.5 0  1.672742954892153 2.332882724550692 0  0.2683637361947215 1.874801596909639 0  2.174770749820102 0.5581009131310781 0  1.443279522965991 0.8870068372898454 0  0.3385416666666667 0.3571428571428572 0  0.78125 0 0  2.060421048269335 2.314363248763811 0  1.088078737088509 0.8967352118723447 0  1.087825368444708 1.454931510884769 0  2.018308232129541 0.8548495425854904 0  1.943987311736842 0.3246298523011434 0  1.71875 0 0  1.85337849796276 1.144833312386208 0  2.3486328125 2.1044921875 0  1.407588788651747 2.042968789119587 0  2.336309523809524 0.865366648092144 0  2.34375 0 0  2.5 0.15625 0  0.15625 2.5 0  0 2.34375 0  0.1638044648294291 1.242263417405867 0  0.356216654757926 1.032569427322806 0  0.3188217956111817 1.355736727000647 0  0.5924956460852111 0.36112522004736 0  0.6594216488965849 0.1603472116132387 0  1.841804599497131 1.72214349266521 0  0.15625 0 0  0 0.15625 0  2.115898634821499 1.894570904464496 0  0.7821877980253907 0.7129993435924866 0  1.003820447087786 0.4516053462784233 0  0.477562948779147 1.138333049293613 0  0.719493678605015 1.305655360135975 0  0.9772457618587566 2.020350128938537 0  0.8764738248887107 1.826219722709673 0  1.254787875123819 2.339010653832026 0  2.343597354852534 1.249982759769001 0  0.78125 2.5 0  0.46875 2.5 0  2.5 1.40625 0  1.09375 2.5 0  2.5 0.78125 0  2.5 1.09375 0  2.03125 0 0  2.5 0.46875 0  1.40625 0 0  0.46875 0 0  0 0.46875 0  0 1.40625 0  0 1.71875 0  0 2.03125 0  2.5 1.71875 0  2.5 2.03125 0  2.005424054645407 1.653223486966518 0  0.1538730573856537 1.559850281736677 0  2.33984375 2.33984375 0  1.166539506212474 1.922878979538754 0  0.3914885633949916 1.65887232812171 0  0.5795503163042564 1.766243562569382 0  0.399533125920212 1.946786875081388 0  0.7866324979014098 2.127719094551316 0  0.3654683023546834 0.1495701132219454 0  0.1527388747131078 0.6116379440619215 0  2.013737577140188 1.391056634712135 0  1.17635437372994 2.213329084238133 0  1.737118141866284 1.010577140843115 0  2.200707118087222 1.164723314085963 0  1.697018908736685 1.993548551451517 0  0.5387621649009668 0.6070503962352419 0  2.032805785855952 0.5330427622570983 0  1.082699501358059 1.667818725183932 0  1.503819781540653 0.5468420196858188 0  2.015409142866072 2.175941657590429 0  1.752057611265444 0.869642097111018 0  0.612251684107783 2.356045720700959 0  1.902817102342857 0.6607642211999982 0  2.159616561739693 0.7867739969338844 0  0.5120038350106624 2.197302352398502 0  1.888200216011548 1.919501662489862 0  1.495909909726654 2.16028358757309 0  0.489139876703609 1.443203008943564 0  0.8819175670410521 0.3301172743913011 0  1.882591144370812 0.8155965192707721 0  1.133979796994841 1.172526771862882 0  2.206217447916667 2.084147135416667 0  2.20361328125 2.36279296875 0  1.395746985657004 1.556054166359645 0  1.704383111516207 1.734750450338683 0  0.9575737847222222 2.36274223823052 0  1.035150984253136 0.1302833343179028 0  1.383966125325753 0.7651479963479179 0  1.64003252158672 0.6824316405528895 0  2.22550785055421 1.487078576356817 0  1.760964431499756 1.48495222505201 0  1.276460980673788 2.004207003584658 0  0.1341477688427096 1.828777507920502 0  1.542261434180652 1.155296658359034 0  1.334627911613854 0.9696897472490321 0  1.30794231473696 1.119420615785191 0  0.7028260459857245 0.4438906910721139 0  1.625757433094055 1.84268057552138 0  0.9818707849053143 1.165603626132254 0  2.0086489901463 1.243134585689553 0  1.934584460420609 2.374094051915812 0  1.798434376789567 2.38671361912528 0  1.206314791201715 1.382064292497919 0  0.6333752893366955 0.7023738550008095 0  0.7796219811205605 1.42573253164258 0  1.564399711917382 1.026040828857629 0  0.3385416666666666 0.4889012896825397 0  0.1041666666666667 0.390625 0  0.989112246382566 1.543537365516289 0  2.025724425454636 0.9846960595520872 0  0.6602885475034063 2.086117390485779 0  1.607130551925032 1.267198646640915 0  0.1317864544877056 0.8896173683400176 0  1.755387840017567 2.230364320056445 0  1.301540702984401 0.1216289692748247 0  1.433170657577442 0.3331052752740999 0  1.500459610550388 0.113513924782439 0  0.6494291520606965 1.029586599619295 0  1.010146149868299 0.794897284196169 0  0.3700844198238017 2.235390157870766 0  0.3360891767780704 2.36656279435396 0  1.876856241037701 1.437150669863757 0  1.778674102957329 1.245979347269706 0  0.5472829890977179 0.1005517127039925 0  0.4669074189005698 0.3416784232954367 0  1.472765289289269 1.850899166481903 0  1.555853593327178 1.608452097912802 0  0.6708955559113426 1.646561631116984 0  0.8164699620322933 0.5924479455478063 0  0.3167738989468366 1.758696809749795 0  0.2788007305565096 1.605499483471246 0  0.7821720982350511 0.181524936294752 0  1.376812251214195 2.313340247908297 0  1.785652202614777 0.5962261755537186 0  1.761467296310972 0.4679567244718574 0  2.2265625 1.8359375 0  2.3828125 1.9140625 0  0.5279531607054191 2.071552361614785 0  2.397573269551114 0.234375 0  2.383578172599618 0.3589298466020009 0  0.1024267304488855 2.265625 0  0.1164218274003825 2.141070153397999 0  0.2696857594953064 2.135405441512016 0  2.164961300137334 0.1375322943529536 0  2.137757548369486 0.2724194778647587 0  2.238873711826398 0.3626419179496562 0  0.1001414910226386 0.234375 0  0.2176339285714286 0.3478422619047619 0  0.2503620791333544 0.1061694061057066 0  2.336445461915368 0.1250451055247424 0  0.2154004640409726 2.3918124
[...]
<PointData  Scalars="f_49-2"> 
<DataArray  type="Float64"  Name="f_49-2"  format="ascii">5.0390183852508158e-16  2.2338910612802838e-16  4.1144553996609784e-17  2.9424776104768558e-15  1.5254808346093694e-16  4.6590903982066984e-17  5.2489258564384161e-16  5.1176568187263807e-16  4.2814218380012573e-15  3.1064551396333530e-16  2.0242347106491426e-16  5.1363747733593297e-16  5.7159137509460398e-16  3.9597818496943366e-17  8.8952250946680083e-17  1.1606236062381772e-16  2.4327712704198744e-15  1.0922829581686742e-16  5.7290912814480606e-16  2.2113981565335678e-16  7.6987290291350796e-16  1.6097538411510576e-15  3.2611172659644761e-15  1.1593446726411426e-15  4.1067789725818828e-15  5.5200786344440097e-16  1.4560441367291331e-16  5.6300326016821826e-16  7.1334691686274703e-17  7.1096517044535488e-17  5.6385541421947971e-16  1.5942063727019446e-16  5.9151247402880176e-16  3.5859595272849590e-15  1.8176264587509783e-16  2.7005777859986196e-15  1.0463729430313553e-16  4.7527310601439001e-15  3.8326023383058380e-15  2.7424833873282588e-16  1.7148844079385675e-16  8.0242197478742303e-17  2.1538227425894169e-16  1.9382597059031598e-16  9.4512558361054166e-16  4.9629286355867995e-15  5.0045893680091753e-16  6.1935586290732350e-15  5.5690953599917601e-15  1.1833414433654938e-16  1.7968575333862217e-16  5.0364538137822624e-16  5.9314871953524096e-17  4.1012878467423792e-17  4.4113521194841813e-16  5.5860478835993271e-16  5.1796707804356633e-16  3.8651149601018232e-17  5.5253204151795175e-16  6.8099716717755117e-16  5.0148755207592693e-17  1.9487963479444517e-16  6.7775484986547184e-16  7.4029514366315322e-16  5.9528069939307025e-15  5.7179501940825320e-16  5.7322068805984586e-16  7.8036252789728091e-17  5.5411992279146185e-16  9.8570260571044177e-17  2.7737874077686910e-16  1.3494741597569699e-16  5.6853936092952632e-16  3.3438189183548367e-15  2.0685713481331527e-16  6.4908355088871200e-16  8.1666934211097476e-16  3.6737236469753710e-15  5.4149343902492814e-15  1.3810145826742142e-16  1.9406230691522133e-16  1.6608357492197209e-16  1.3397265852317081e-16  1.2680275825654660e-16  9.1309567829091522e-17  5.1732306653725825e-17  5.5582749714854596e-17  5.7199492492200182e-16  5.6595972240373923e-16  5.4300604758975486e-16  7.6301408968100302e-17  5.7034446119265940e-17  2.0774508278310255e-15  5.7281410164344313e-17  5.4653722865100112e-16  8.7420775274227365e-16  5.3746974443102478e-16  6.1555188262761405e-17  6.2128128525112556e-16  5.3608729468006888e-16  6.6755347376770955e-15  5.5203118616625847e-15  5.7340091673332900e-16  1.3318375783377340e-15  1.1939876100237755e-16  3.5750242893232373e-15  3.8055652367713760e-16  1.8489283860793816e-15  1.3248248535364194e-16  1.2739588672574197e-15  5.6334851130726582e-16  4.8125089071600725e-16  4.5786494085582455e-16  5.4494883274548598e-15  1.9132218492069534e-15  1.8873568390818167e-16  1.5747923683802087e-15  8.3424462560174919e-17  6.2083038156194093e-15  5.8675428408304419e-16  5.3018911169378998e-16  5.4204218096232405e-16  4.2227794929533521e-15  7.1460852456803265e-15  1.5261491659420751e-16  1.9390241778184317e-15  5.7010030358672496e-15  5.4219190435387903e-16  9.5261102758998411e-16  1.1631480170798388e-16  1.8785688865620770e-16  3.1193251940297818e-15  6.3953527382140197e-16  1.2693134661297931e-16  9.1583233902577074e-17  6.4459353727144223e-15  2.3205323288775202e-15  3.8582243823398570e-16  5.6117966923670426e-15  6.7608565329536575e-15  1.8315171971154383e-16  1.5587313552506908e-16  1.6712549486279390e-16  1.6325131026052662e-16  1.7130634667189463e-16  7.7642705848555892e-17  4.2736705224365781e-15  2.0723250840401661e-15  5.7258922275185641e-16  6.4095551298298954e-17  1.4783978409321794e-16  8.5504820917203909e-16  1.9075628177599615e-16  5.5198016666353078e-15  7.6792138416267297e-16  5.9711751638337948e-15  8.5823114247979849e-17  8.4061133794883298e-17  1.0416921053642285e-16  1.0659969058476460e-16  1.3424710989852850e-15  2.0834980250136994e-15  5.3303206971019712e-17  5.0864109486121667e-17  4.0432835234420901e-17  5.0295088061940447e-16  5.2474590707840852e-16  5.1220285660648299e-16  4.7466141232639217e-16  5.3066724272569252e-16  2.0016045618867136e-16  2.0002677168200506e-16  2.6598396376017602e-15  2.2106696580252027e-16  2.2248472722017556e-16  1.5187328017028032e-15  1.2583519200932998e-15  1.7689028698762145e-16  5.7395358349841198e-16  1.3198848555030112e-15  5.7748680841090570e-16  5.8773645427566862e-16  5.6003000207450918e-16  5.9857747023237773e-17  5.1575328956993231e-16  5.0660546584620458e-16  4.8460179386960587e-17  5.2083245218557412e-16  4.1363072785313077e-17  4.3824144731700778e-17  7.6103394498605628e-17  3.9014499315331894e-17  1.3110993666130033e-16  2.0988413565612097e-16  2.4954654966558255e-16  5.3704952889725401e-16  5.6957048569569448e-16  5.6640664714951293e-16  6.1238189603415122e-17  3.3738270331647106e-16  5.5282935668216943e-16  5.5766650630304240e-16  3.4210164522195627e-15  9.8625687979623816e-16  5.6422168931008031e-16  5.7145538833802258e-16  5.7176947287072609e-16  5.6507458561262779e-16  2.1239344014271089e-16  3.4753585057899539e-16  1.1585219818040387e-16  5.7662139194271852e-16  1.1514084586065973e-16  7.0792423187376053e-17  6.4348914527210768e-15  3.4014133390319351e-15  7.8632069367680670e-17  2.1795176466787705e-15  1.3385995988316413e-16  5.4974210799944156e-15  1.1231347756591572e-16  5.3561310728410087e-16  9.3307756641836484e-17  6.9326783339508768e-17  5.5509683873074446e-16  4.6239212984424748e-15  1.8528509628482422e-15  5.4382090914962408e-16  1.8514713389443487e-16  9.6929245713341591e-17  4.8439220761008424e-15  2.5468768232388521e-15  4.8277602516966964e-15  6.6006814591781501e-15  4.8910611236119433e-15  5.3954887795508475e-16  1.7389684753500957e-16  1.4738834457696510e-16  1.2127132096686626e-16  8.2056913584687859e-17  9.6422803682739929e-16  1.1718857077023497e-15  5.7239142588119013e-16  2.9562301550770916e-16  2.4801475517790075e-16  1.2175941846449483e-15  2.0835639758245525e-16  6.6643455791362663e-15  6.9585867337716181e-15  9.4000080973815689e-17  4.5189351905935083e-15  2.7297825625858548e-15  6.8825886725240227e-15  4.1145838747369283e-15  9.9611276382788821e-16  1.4713038859646890e-16  4.2112391422344339e-15  9.3359901658168624e-16  2.3159809961989424e-15  8.4559905082261458e-17  5.6629302674933143e-16  4.8525271527419232e-16  4.1736427786490330e-16  4.0690764706794578e-15  1.4797908830941789e-16  1.3898210615350257e-16  1.2567839826399906e-16  4.0625621476668649e-15  5.4325892897971222e-16  5.4899840528285203e-16  5.2932869762358601e-16  2.6842098010452545e-16  1.5727315350139432e-16  2.0561996722133970e-16  2.2263461400316897e-16  6.0002587058674776e-15  5.1442485837912767e-15  5.6821959569904758e-16  2.9147990281045958e-16  5.7056045641520479e-16  5.6040360654745148e-16  1.9252745648333015e-16  6.4630971759007312e-16  1.0627483230114597e-16  1.0448176551859089e-16  4.9554055669666661e-16  2.8331336038326235e-16  5.6670844241924182e-16  4.3952328582476658e-17  4.7491632714614279e-17  5.4199286974193770e-16  5.5894525311659529e-16  5.5885418791619486e-16  6.4454458358872301e-17  6.7657235630794434e-17  6.0543944716285040e-17  1.5851231448408644e-16  2.4616739813054209e-15  2.1667503895690651e-16  4.8710515576494379e-17  5.2307308713609272e-16  5.6101016602070169e-16  2.1767726551194765e-16  1.0568482147550961e-16  1.7316477050628261e-16  1.6381374555121671e-16  1.5401406710290953e-16  5.6994288783963827e-16  1.9209038384603196e-15  5.0462800877031475e-15  5.7043634210001668e-16  8.4147561677922299e-17  4.9263407655774176e-17  4.8594559970729017e-17  2.0381721800125308e-15  4.5684694882348079e-16  5.7376541801870483e-16  5.7280265723270225e-16  1.3180567400992442e-16  1.2744922839725337e-16  1.6775989154440077e-15  9.4675140438097483e-17  2.6260561609318808e-15  5.9473922764362082e-16  7.6185487605514283e-16  6.7102065089240266e-17  1.8682860439292292e-16  6.8470856776952626e-17  6.9436082416955425e-16  4.9177493594453284e-16  5.1039608856926505e-17  3.4922257988477233e-16  7.2470322236892478e-16  6.6120698586032806e-16  3.2191337955554378e-15  8.2402679007994214e-17  5.3576337747378560e-16  5.4537583033324922e-16  5.2474324699653293e-16  5.4806413099214210e-17  6.8601919296743440e-17  6.9280410234931481e-15  1.1216704183161671e-16  1.2041487548813044e-16  6.0262090016099617e-15  9.6779903327214888e-17  6.5757583113077217e-17  4.6574371292551669e-15  8.1374946117716798e-16  5.3023729963344612e-16  5.3945050727310770e-15  8.0222024447735855e-16  4.8913140932760836e-15  2.8103210706813688e-15  1.1658902554995467e-16  5.6484651804901163e-16  4.9811983376185108e-16  5.3644989332691254e-17  5.0874149900591033e-17  5.4977301679570361e-16  5.1806376541939267e-16  3.1438482064613277e-15  3.0747222870052416e-16  8.9375704572049905e-17  1.4410542722592152e-16  5.1710787635575148e-15  1.2749305983143336e-16  5.8137369509939524e-15  5.6993670510262799e-16  5.8110736923903950e-16  3.6033766906865429e-15  5.4692326426413460e-16  2.0106755820182041e-16  4.2491672261408073e-15  6.8130866897375730e-15  4.5496760932596594e-15  4.7596877849006564e-16  6.4804318604106249e-16  5.5556215260654228e-15  6.3012106737251374e-16  3.6327109780693975e-15  2.1400577478833358e-15  8.8384631356709545e-17  2.5515002194719094e-15  1.2015502406155897e-15  4.0598679175614659e-15  6.3878857034199668e-16  5.7037322988801355e-16  6.0768906529180659e-17  1.1181923837500234e-15  1.5528762878079450e-16  2.0137031230060106e-16  5.5568607878422658e-16  4.2451748925189599e-16  4.8336322181376872e-15  1.9780065648587554e-15  3.7502964738071169e-15  1.1498700928395926e-16  1.2476688073295650e-16  5.6961648856573102e-15  2.6290360079017957e-16  4.5450444468931855e-16  9.3267016792064321e-17  7.7950445288705165e-17  7.0713364828075056e-15  7.9803554841720358e-17  1.0358115290674213e-15  5.6014656400184342e-16  5.7700871105455466e-15  4.5501392817684821e-17  1.6270217326723940e-16  1.6409127364121742e-16  2.3123478227653034e-16  6.2775435642411321e-17  5.6799918683199674e-16  5.5680313486621769e-16  2.6130294708698378e-16  5.7350080122102846e-15  1.2729005534582825e-15  5.0800408751476050e-16  6.1966764844301342e-15  3.6165683606738069e-15  3.5522037023947113e-15  1.9638668214675056e-15  5.5130713392399590e-16  5.0890999425537893e-16  5.7324854767199708e-16  2.8335248539066367e-15  6.0772234171778595e-15  5.2116254457657101e-15  1.9597494043598511e-16  6.8890086309461051e-15  5.2998227558059312e-16  5.4583129500995493e-16  7.5481649219772432e-17  1.5462511758873919e-16  5.7162819130815020e-16  1.3700931306896310e-16  3.0702836819720004e-15  1.9439164484003855e-16  5.6767568171284074e-17  5.6995165194654675e-16  2.2111931250519167e-15  9.6442205781549673e-17  4.4947929191498068e-15  6.7570524047221127e-15  5.2330133752601580e-15  1.4307276960794017e-16  1.7928156549057560e-16  5.4783932893303769e-17  3.7358854224270861e-15  4.7932237173892330e-16  9.6315023393883066e-16  6.5678718072277239e-16  6.2792231625395829e-17  5.1783227064279873e-16  2.3675024893779796e-16  3.6086242709133415e-15  7.1034747208310636e-15  3.8533282518301023e-16  6.5711832329808401e-15  1.2721366784259419e-16  5.1743231696640520e-16  6.7155796356740728e-17  7.2807319774063194e-17  5.3383817533117490e-16  5.5110446853488582e-16  8.3157669388788707e-16  1.2646836533643516e-16  6.9503866106563452e-16  8.2798710197878136e-17  1.9163548434961245e-16  1.9081066153236011e-16  1.6365169515649457e-16  1.4821959017180086e-16  1.4720263014156893e-16  4.0273432366813977e-15  2.1454490778407054e-15  6.7182864261728457e-15  2.0959092931273987e-16  5.0585901452548881e-16  5.5874871379408176e-15  4.9238450000202412e-15  5.4493951844188022e-16  7.0935816189025084e-16  8.5489464563295480e-16  2.3290591686901557e-16  1.6988425787891130e-16  2.4334422896344339e-15  5.6190108720360309e-16  5.8498970493726645e-16  1.3623146220681943e-16  3.1611576436562357e-16  1.3990582087294133e-16  4.1116055191709789e-17  6.6444611323757135e-17  1.0429915987719557e-16  5.6344307430243549e-15  5.7203032657129248e-16  3.4503666038034368e-15  8.3284820888900783e-17  1.6146529416256299e-16  2.4856857209067885e-15  2.1184399019115414e-16  3.8824518155163399e-17  4.5808504439945159e-17  5.3347469470568843e-16  1.7973527610908913e-16  5.7253408802314791e-16  5.7172557046030579e-16  1.0748013296236182e-16  4.9660593638824825e-15  1.7681459905294033e-16  1.0534253373015324e-15  1.7846281717418618e-16  6.8479469645268289e-16  9.2670244211217343e-17  5.7198748335883416e-16  5.7083184143913888e-16  5.2171481742773026e-16  5.2499143477987301e-16  1.6787596427937094e-16  1.8914452711001224e-16  2.0567381404139732e-15  5.6143911698300787e-17  5.5766681795906905e-16  5.7507949029124958e-16  1.1735012335212208e-16  1.0653185195266497e-16  1.2112065984947035e-15  5.6659739092728001e-16  7.1599843979318047e-16  7.2172138174365764e-17  1.5627298377879671e-16  4.0523550797090344e-17  7.9857141136132762e-17  7.8635448227845867e-17  9.1218516096901551e-17  1.3540010962134089e-16  4.0425430141888124e-16  8.3009607176286356e-17  4.1181641867648215e-17  5.7695538829135544e-16  6.8897172694636439e-17  4.7984432707539624e-16  4.9179339609076619e-16  1.2613698114925873e-16  2.6541764119443586e-15  1.7558519344933596e-15  2.3887743210745889e-16  1.1542057753109540e-15  2.4513912481835069e-15  1.6949210260792119e-16  1.7390856305900213e-16  5.2499240423946143e-17  5.5385904032823326e-16  6.3224576780730515e-16  1.8301044968977994e-16  1.3580508449355752e-15  5.4900568503642517e-16  5.6351874099016496e-17  3.9431063935464258e-16  3.3183532142940363e-15  7.5684329690919632e-16  1.0240965670855517e-15  4.4180617932958336e-17  1.6497873725833698e-15  4.1780986460402900e-16  4.6021583070919460e-17  5.3383508462010028e-16  1.2730985794305107e-16  1.1459403102353551e-16  1.5223887863101421e-15  2.2740435471102920e-15  5.6529898332561256e-15  4.0230484890415112e-15  6.1694983991192489e-16  4.2369515820857320e-16  5.5513272439288526e-16  5.0103160620841694e-15  6.6741390400120836e-17  4.6789528807472575e-17  5.7922124433917886e-16  6.5728589000487882e-15  2.0389015336413018e-16  1.2821371218600695e-16  1.8732256967578678e-16  5.2113682091553844e-15  4.4673524666860471e-16  6.6816761075154296e-16  6.1022525122155360e-15  5.1919630001210350e-16  7.3872468486310004e-16  1.7097770533065498e-16  7.1171582292378261e-17  9.8486999810648481e-17  2.0599160562136636e-16  5.3103745578622444e-16  1.9553924861325038e-16  2.0248642823562040e-16  1.9774682346832396e-16  3.2536730846523792e-16  2.0090839448849225e-16  4.9797957814091232e-17  4.2718013531448836e-17  6.9470836828821666e-15  3.9921837561687324e-15  4.3513724160507483e-16  5.4239679155087045e-16  1.7286477648889037e-15  4.4882880026983387e-15  6.2477941794018665e-17  1.7568872728163172e-16  1.0248127992181174e-15  5.8338353877050218e-17  1.5847646168262352e-15  2.2863564064370543e-15  5.2968729466050202e-15  3.6335079475981540e-16  1.4181180846458685e-15  1.4053518980373847e-16  6.0474600595192392e-16  5.4925032483868213e-16  2.2204437988262384e-16  2.2402860874766962e-16  2.7228501651912408e-15  1.4327957709190984e-16  3.1000450513648320e-15  2.1419991268890936e-16  5.5863710502900343e-16  4.3127094424574562e-17  1.4029634744349344e-15  3.5706574522989213e-15  1.1912840426153288e-16  2.7238518070013965e-16  7.6394815757592259e-16  1.7186650279165054e-16  3.2546674066987877e-15  2.1543428163745875e-16  5.7642022431301226e-17  7.5766783031559348e-17  1.7691767768183448e-16  7.5859273717006974e-17  4.9557545628391681e-15  5.6722928426006196e-16  5.6318760233848914e-16  5.7038251969527837e-16  6.1498310584172190e-16  5.2425624225526144e-15  1.0420287452973999e-16  3.8398521248440113e-15  6.9785625620187415e-15  4.9560545013975252e-15  1.8796466565679876e-16  6.0408191122763808e-17  5.2999396279713058e-17  5.5968863724842977e-16  5.1120796915548905e-16  5.7533356881550767e-16  5.6637494016000596e-17  1.5829209133413423e-16  4.8047067792812244e-15  5.1652383483417795e-16  4.7666422779044558e-15  5.1605217888490515e-16  5.0432288688058834e-16  5.2846372624104281e-16  5.6496775192785279e-16  5.1559784170268786e-16  5.4413972464039584e-17  9.4689304656812109e-17  1.1069036475729663e-16  4.4988191213206342e-17  4.7885207662774743e-17  4.9103374911071336e-17  4.6389233036428838e-16  4.9826418775596423e-16  5.2502358264861030e-16  5.2230286804513257e-16  3.3889015447792953e-16  1.8511966873644838e-16  8.2665078868421673e-17  5.7008260740949666e-16  5.0206563551986810e-16  2.1898513777762354e-16  5.3734128457472542e-16  3.9172147377708612e-17  2.0693386585973368e-16  1.2608938364212128e-16  2.1388276660136326e-16  2.0514760057614338e-16  1.8757103071271096e-15  1.4090290576596624e-15  2.5353587908119012e-15  3.5998963251771425e-15  5.5094781473567619e-16  5.7899727741503232e-16  2.8209395851433707e-16  7.6320201632044574e-17  5.6015683803774448e-16  3.8714357505338600e-17  9.5920345084952099e-17  6.2076075597117742e-16  1.7001142939387418e-15  5.2708205283700897e-16  1.3732600477327017e-16  5.4020392394119825e-16  1.0034274127680452e-15  5.7881428678940377e-15  2.3776535313888445e-15  2.3980697312323482e-16  2.1063896515456484e-16  5.8324023391588031e-15  2.9112511798162236e-16  5.6885638286704100e-16  2.8735871351472467e-15  1.7163746985134604e-16  5.6966005078837187e-16  5.4604187541141212e-16  5.5770041900479576e-16  5.6257617270101355e-16  5.2626122740485280e-16  3.4718787258191592e-16  9.1123722253060731e-16  6.5858366320499683e-17  6.4494593933051195e-15  5.9949349714721299e-16  7.3669607613522699e-17  6.1186299594958143e-15  5.4620502979434902e-17  5.5355701885997757e-16  5.9122457000298479e-16  6.0756378498580704e-15  5.1020264367523325e-16  5.6863228549159768e-15  5.7410586535502363e-16  1.3919690628015299e-16  5.6174570236179805e-15  6.9838008549380857e-15  8.7440894871343734e-17  5.9022560661394249e-17  3.7249075027527550e-15  7.1687333769546801e-17  6.3069143790386881e-17  1.2194721403734628e-15  1.2629966709038113e-16  3.4718011294718137e-16  2.4710323828510476e-16  3.4598258640084276e-16  1.1133235136554118e-16  5.6674493147910553e-16  5.7042837407998424e-16  3.0784189736539389e-15  1.4684142395936102e-16  1.0896712705524700e-16  1.1602974795999920e-16  9.3180690937691179e-17  5.6214224314750639e-16  5.3722519714200835e-16  7.8039646117156037e-16  5.7139097939045578e-16  1.5585164269398110e-16  5.7274366484472037e-16  5.7245702926026815e-16  6.9178436590863994e-16  1.7025643108696432e-16  1.0332217144768413e-16  9.5501172663622223e-17  5.6518490294589638e-16  7.2637865613831596e-16  5.5927700152541830e-16  5.6248031414055198e-16  5.6886817130653149e-16  1.3474892411426720e-15  6.4981061300318273e-17  5.5890206371642223e-16  5.6787598843478105e-16  5.5414415196904505e-16  5.5612527569474979e-16  5.4785915244804537e-16  1.5697647147247598e-15  2.2610792259342079e-15  1.3477788432083292e-16  9.0368618665170007e-17  4.7769382644782765e-17  7.5206555974650896e-17  1.2343609700275794e-15  6.7299175274257443e-16  5.0576969673897532e-16  8.2703657929250788e-16  7.8282594900268298e-17  1.5944290963873418e-15  1.4543112209404212e-16  2.8003682140275934e-15  3.3185777700021780e-15  8.8107797876370314e-17  4.7182083341818890e-15  5.8940654605777775e-15  3.7193778383992042e-16  7.2460774866847028e-17  5.1672235157221557e-16  5.4390319665113739e-16  6.9957783491338108e-15  1.7751785008351764e-15  5.2253344467818075e-16  5.8586102781157615e-15  6.4040743975966050e-15  5.7332537869988695e-16  5.2574570698788711e-17  1.6157870766303787e-16  4.1447614838931466e-15  5.4846650660456246e-16  5.3552411480235339e-16  5.4550738688008859e-16  5.2533731500871076e-16  8.4480316639732970e-17  5.1642584563193591e-16  8.6079197903380370e-17  5.2221834779476643e-17  5.3134681095807909e-15  5.6233938075795974e-16  1.1982079414095059e-16  4.1252397703649823e-15  7.1458322558961350e-17  3.7929010863126815e-15  5.4102785485525589e-16  5.5019797628667169e-16  5.5842340443863720e-16  5.3878056189535591e-16  2.6060136792816