<?xml version="1.0"?>
<VTKFile type="UnstructuredGrid"  version="0.1"  >
<UnstructuredGrid>
<Piece  NumberOfPoints="6486" NumberOfCells="12696">
<Points>
<DataArray  type="Float64"  NumberOfComponents="3"  format="ascii">0 2.5 0  0 0 0  2.5 0 0  2.5 2.5 0  1.25 0 0  2.5 1.25 0  1.25 2.5 0  0 1.25 0  1.25 1.25 0  0 0.625 0  0.625 0 0  0.625 2.5 0  0 1.875 0  2.5 0.625 0  1.875 0 0  2.5 1.875 0  1.875 2.5 0  1.770833333333333 0.7291666666666666 0  0.7291666666666666 1.770833333333333 0  0.9375 0.625 0  1.875 1.5625 0  0.642361111111111 1.163194444444444 0  1.341594827586207 1.883979885057471 0  0.46875 0.46875 0  2.03125 2.03125 0  0.3626104797979798 1.513178661616162 0  1.381740196078431 0.4564950980392157 0  0.9375 2.172619047619047 0  2.172619047619047 0.9375 0  2.096354166666667 0.4036458333333332 0  0.4036458333333333 2.096354166666667 0  1.684027777777778 1.163194444444444 0  0.3418803418803419 0.8693910256410255 0  1.642742622813391 2.162164207604464 0  1.275619849389031 0.8465650753054845 0  0.9136284722222221 1.434461805555556 0  1.732437511238546 0.3406962303960658 0  0.9714402568595876 1.029779313093998 0  1.52281746031746 1.485615079365079 0  2.1875 1.71875 0  1.06819722569879 0.2997236128493951 0  2.136114211309524 1.303478422619048 0  0.3125 0 0  0 0.3125 0  2.5 2.1875 0  2.1875 2.5 0  0.3200021620376328 1.192323085056694 0  0.6738456129277992 0.8304377375553881 0  1.757891808928991 1.861952730357003 0  1.5625 0 0  0.9375 0 0  0.3125 2.5 0  2.1875 0 0  2.5 0.9375 0  0 0.9375 0  0 1.5625 0  0.9375 2.5 0  2.5 0.3125 0  0 2.1875 0  1.5625 2.5 0  2.5 1.5625 0  0.7448220909826522 0.3003573636608841 0  1.027298850574712 1.871151477832512 0  1.331260495098891 2.197262878816185 0  1.207917681892289 1.582765010956622 0  0.4339993447432606 1.801186844743261 0  0.6337298768939392 1.443093039772727 0  2.049851190476191 0.6826636904761904 0  0.6584821428571428 2.219122023809524 0  1.89575676467455 0.9798457973793544 0  1.437570562095628 1.059380588255917 0  1.502090052505845 0.6987070896496241 0  0.2040860661083546 1.705323965099331 0  0.2083333333333333 0.46875 0  0.5070952039991439 0.2211150679997147 0  0.6916302856529919 0.5813591430410241 0  2.265625 1.953125 0  2.2265625 2.2265625 0  1.886424081252096 2.243391360417365 0  1.40625 0.202164758520858 0  0.2269345238095238 0.2269345238095238 0  1.152730869673694 0.5225850378741401 0  1.885631899587912 1.312095130148776 0  1.614808884009367 0.9049784971014416 0  1.890095442220658 0.5126535558463003 0  2.323168682795699 0.46875 0  2.268811725689575 0.2304742875213018 0  0.6002389442105756 1.967426444210576 0  0.1768313172043011 2.03125 0  0.2311882743104251 2.269525712478698 0  2.03125 0.176831317204301 0  2.280262553344767 0.6954945504579233 0  1.979219539285994 1.809922269642997 0  2.336309523809524 1.09375 0  1.09375 2.336309523809524 0  0.9314042474388009 1.662973812215543 0  0.1634067999087722 1.40625 0  2.337090640094896 1.40625 0  1.141616997467638 2.069311773587991 0  0.46875 2.338939559681489 0  1.542440307908715 1.734944797244472 0  1.556713687786879 1.956977865354753 0  0.8264238995344066 1.975424467820646 0  1.466326331454725 1.275271369760862 0  1.655675324257095 0.5444159974393489 0  0.3385416666666666 0.6479255698005697 0  0 0.78125 0  0.5236073939200119 0.984090461540625 0  2.091665741047893 1.519793517904215 0  1.71875 2.5 0  0.5356538886262603 1.623137930505009 0  0 1.09375 0  0.1932884281517095 1.015625 0  0.8569313582417669 1.2198915584249 0  0.8876981284879677 0.8329884081524883 0  1.115618488474214 0.7219586973356271 0  1.186950366204949 1.043465130075318 0  2.057459118787237 1.110823087309335 0  1.830651283878689 2.049810069572418 0  1.689107969301489 1.367247437031697 0  0.4921048768039656 1.298643370653124 0  0.8213975694444444 2.336309523809524 0  2.03125 2.5 0  1.049729400480002 1.283723261332814 0  1.308101375801673 0.6489479469700392 0  2.5 2.34375 0  0.4968777175037714 0.7562964879736076 0  1.40625 2.5 0  1.501347663534097 2.307027627307738 0  1.602813712048603 0.1926218191360736 0  0.8393082906308107 0.463778306132633 0  1.682663349152719 1.598471865581041 0  0.7774174680851571 1.560004941327907 0  1.554204170364662 0.3898593897892066 0  1.842184459051087 0.186443880058197 0  1.358107417651776 1.696381759610015 0  1.18859291992392 1.77598670078022 0  0.1875331222687418 0.7609599743339348 0  1.339536743965101 1.422080365801479 0  0.7788179348750389 0.9955343414928611 0  0.9062978492805438 0.1919636509126373 0  1.256007360640958 0.3160320559396114 0  1.09375 0 0  1.174986727221844 0.1594990293443933 0  2.34375 1.796875 0  2.318026474511116 1.589177949022232 0  2.34375 2.5 0  1.672742954892153 2.332882724550692 0  0.2683637361947215 1.874801596909639 0  2.174770749820102 0.5581009131310781 0  1.443279522965991 0.8870068372898454 0  0.3385416666666667 0.3571428571428572 0  0.78125 0 0  2.060421048269335 2.314363248763811 0  1.088078737088509 0.8967352118723447 0  1.087825368444708 1.454931510884769 0  2.018308232129541 0.8548495425854904 0  1.943987311736842 0.3246298523011434 0  1.71875 0 0  1.85337849796276 1.144833312386208 0  2.3486328125 2.1044921875 0  1.407588788651747 2.042968789119587 0  2.336309523809524 0.865366648092144 0  2.34375 0 0  2.5 0.15625 0  0.15625 2.5 0  0 2.34375 0  0.1638044648294291 1.242263417405867 0  0.356216654757926 1.032569427322806 0  0.3188217956111817 1.355736727000647 0  0.5924956460852111 0.36112522004736 0  0.6594216488965849 0.1603472116132387 0  1.841804599497131 1.72214349266521 0  0.15625 0 0  0 0.15625 0  2.115898634821499 1.894570904464496 0  0.7821877980253907 0.7129993435924866 0  1.003820447087786 0.4516053462784233 0  0.477562948779147 1.138333049293613 0  0.719493678605015 1.305655360135975 0  0.9772457618587566 2.020350128938537 0  0.8764738248887107 1.826219722709673 0  1.254787875123819 2.339010653832026 0  2.343597354852534 1.249982759769001 0  0.78125 2.5 0  0.46875 2.5 0  2.5 1.40625 0  1.09375 2.5 0  2.5 0.78125 0  2.5 1.09375 0  2.03125 0 0  2.5 0.46875 0  1.40625 0 0  0.46875 0 0  0 0.46875 0  0 1.40625 0  0 1.71875 0  0 2.03125 0  2.5 1.71875 0  2.5 2.03125 0  2.005424054645407 1.653223486966518 0  0.1538730573856537 1.559850281736677 0  2.33984375 2.33984375 0  1.166539506212474 1.922878979538754 0  0.3914885633949916 1.65887232812171 0  0.5795503163042564 1.766243562569382 0  0.399533125920212 1.946786875081388 0  0.7866324979014098 2.127719094551316 0  0.3654683023546834 0.1495701132219454 0  0.1527388747131078 0.6116379440619215 0  2.013737577140188 1.391056634712135 0  1.17635437372994 2.213329084238133 0  1.737118141866284 1.010577140843115 0  2.200707118087222 1.164723314085963 0  1.697018908736685 1.993548551451517 0  0.5387621649009668 0.6070503962352419 0  2.032805785855952 0.5330427622570983 0  1.082699501358059 1.667818725183932 0  1.503819781540653 0.5468420196858188 0  2.015409142866072 2.175941657590429 0  1.752057611265444 0.869642097111018 0  0.612251684107783 2.356045720700959 0  1.902817102342857 0.6607642211999982 0  2.159616561739693 0.7867739969338844 0  0.5120038350106624 2.197302352398502 0  1.888200216011548 1.919501662489862 0  1.495909909726654 2.16028358757309 0  0.489139876703609 1.443203008943564 0  0.8819175670410521 0.3301172743913011 0  1.882591144370812 0.8155965192707721 0  1.133979796994841 1.172526771862882 0  2.206217447916667 2.084147135416667 0  2.20361328125 2.36279296875 0  1.395746985657004 1.556054166359645 0  1.704383111516207 1.734750450338683 0  0.9575737847222222 2.36274223823052 0  1.035150984253136 0.1302833343179028 0  1.383966125325753 0.7651479963479179 0  1.64003252158672 0.6824316405528895 0  2.22550785055421 1.487078576356817 0  1.760964431499756 1.48495222505201 0  1.276460980673788 2.004207003584658 0  0.1341477688427096 1.828777507920502 0  1.542261434180652 1.155296658359034 0  1.334627911613854 0.9696897472490321 0  1.30794231473696 1.119420615785191 0  0.7028260459857245 0.4438906910721139 0  1.625757433094055 1.84268057552138 0  0.9818707849053143 1.165603626132254 0  2.0086489901463 1.243134585689553 0  1.934584460420609 2.374094051915812 0  1.798434376789567 2.38671361912528 0  1.206314791201715 1.382064292497919 0  0.6333752893366955 0.7023738550008095 0  0.7796219811205605 1.42573253164258 0  1.564399711917382 1.026040828857629 0  0.3385416666666666 0.4889012896825397 0  0.1041666666666667 0.390625 0  0.989112246382566 1.543537365516289 0  2.025724425454636 0.9846960595520872 0  0.6602885475034063 2.086117390485779 0  1.607130551925032 1.267198646640915 0  0.1317864544877056 0.8896173683400176 0  1.755387840017567 2.230364320056445 0  1.301540702984401 0.1216289692748247 0  1.433170657577442 0.3331052752740999 0  1.500459610550388 0.113513924782439 0  0.6494291520606965 1.029586599619295 0  1.010146149868299 0.794897284196169 0  0.3700844198238017 2.235390157870766 0  0.3360891767780704 2.36656279435396 0  1.876856241037701 1.437150669863757 0  1.778674102957329 1.245979347269706 0  0.5472829890977179 0.1005517127039925 0  0.4669074189005698 0.3416784232954367 0  1.472765289289269 1.850899166481903 0  1.555853593327178 1.608452097912802 0  0.6708955559113426 1.646561631116984 0  0.8164699620322933 0.5924479455478063 0  0.3167738989468366 1.758696809749795 0  0.2788007305565096 1.605499483471246 0  0.7821720982350511 0.181524936294752 0  1.376812251214195 2.313340247908297 0  1.785652202614777 0.5962261755537186 0  1.761467296310972 0.4679567244718574 0  2.2265625 1.8359375 0  2.3828125 1.9140625 0  0.5279531607054191 2.071552361614785 0  2.397573269551114 0.234375 0  2.383578172599618 0.3589298466020009 0  0.1024267304488855 2.265625 0  0.1164218274003825 2.141070153397999 0  0.2696857594953064 2.135405441512016 0  2.164961300137334 0.1375322943529536 0  2.137757548369486 0.2724194778647587 0  2.238873711826398 0.3626419179496562 0  0.1001414910226386 0.234375 0  0.2176339285714286 0.3478422619047619 0  0.2503620791333544 0.1061694061057066 0  2.336445461915368 0.1250451055247424 0  0.2154004640409726 2.3918124
[...]
<PointData  Scalars="f_49-2"> 
<DataArray  type="Float64"  Name="f_49-2"  format="ascii">1.2246150749013470e-17  4.6265225730438829e-17  5.7913859906485623e-21  -1.9893491043733170e-16  1.4360010944122455e-17  1.5732170813792770e-20  1.9343648078617666e-17  1.7261106326459329e-16  9.1042633682171191e-16  9.4757559300263225e-17  3.5209667946318821e-17  1.5764651923517118e-17  1.1918438559794976e-16  4.3836346444057015e-21  1.0713777288687057e-18  -1.2976614594454013e-17  1.1504894183894046e-17  3.3591299889973137e-18  1.4724424427259050e-16  3.7165070135339056e-17  -4.3909068975846288e-17  6.8372938392563582e-16  7.9157106613136771e-16  4.1879418296552090e-16  -7.6273806289728327e-16  1.6915582274764716e-16  1.2090378383773524e-17  7.6346945376903029e-17  2.8006799303001733e-19  2.5427674211157820e-19  8.2817381451485859e-17  8.9839511384277618e-18  2.3676065851155738e-16  3.6510098779368944e-16  2.1520575344070402e-17  1.0273996998497730e-15  2.7227518056155947e-18  1.4763236079756950e-15  3.5992058624319694e-16  -3.9959601700838301e-17  2.1402664767267437e-17  4.1047022091496924e-19  4.1855100625989051e-17  2.8938461924443917e-17  -1.5119100366649781e-16  -3.0379111006551889e-16  1.7092630101640058e-16  2.6117428409980763e-15  -1.3661271474083786e-16  5.0536794657558643e-18  2.4783052411156585e-17  1.1954820268509170e-17  7.7758585023109198e-20  6.7474858726581343e-21  1.5412930484239161e-16  1.6390805160997988e-16  1.7157163626890851e-17  3.9697957839840804e-21  5.7578575098024350e-17  2.7986837574724562e-17  -1.9032353401269350e-19  3.1565385352119546e-17  1.6398089930273449e-16  1.0146279101188962e-16  1.7621182970805550e-15  1.4208438844779346e-16  1.8460941262319642e-16  4.9113436890122929e-19  5.8987996948844667e-17  1.9232842539500245e-18  3.4224016353828168e-17  8.9311917737869062e-18  1.5164876138463145e-16  1.7903544766561452e-15  3.7415387905273221e-17  1.8408677807509965e-16  -1.9281102548613436e-16  -7.0098900092101952e-16  -1.8312597280506530e-16  9.8537282895331286e-18  3.0978944287432303e-17  1.9262604698940372e-17  2.3786132168830640e-18  6.7790173640907190e-18  1.2713381343790429e-18  2.7983284372834681e-20  4.8949535924525162e-20  1.1565074839084800e-16  9.0282222571942516e-17  4.2269221161233777e-17  3.9660941404587317e-19  6.0636013634118988e-20  -3.4627513300332537e-16  6.6053532654455113e-20  4.2672173256714314e-17  2.6889150075419071e-16  1.7284225063283522e-16  5.1808783633552695e-21  1.0953799280542013e-16  3.3377832155155373e-17  8.5573954228373276e-16  8.0191106940802867e-16  1.1698157377569778e-16  1.5644542158370817e-16  5.2415926324134458e-18  1.8331978613844078e-15  1.2904585367164294e-16  8.4207334774549182e-16  -4.8148098393792289e-18  4.3966309926231868e-17  1.6146615187466773e-16  1.6681753861179876e-16  1.5983358872772722e-16  2.2011663066792893e-15  5.6040984230770283e-16  2.5610235265946113e-17  3.3119182955005206e-16  6.9814777278396325e-19  -2.6088408143509878e-16  2.1686186627447313e-17  1.7747897162736206e-16  3.9523019757961960e-17  -1.6323046574778142e-16  2.3295687313295319e-15  1.4383674431967285e-17  -2.2626162198885349e-16  2.7695305724086406e-15  2.0256943218574179e-17  9.5280566910621829e-17  4.6492821358747889e-18  2.8262583343945589e-17  2.3914680995114553e-17  1.9820394718936502e-16  6.9312849117895449e-18  1.2833914206207044e-18  1.5526747561881201e-15  6.7592560977701370e-16  1.3262169284374679e-16  1.0710467748967067e-15  2.7835568112739768e-15  2.6279371733290769e-17  1.5512987677661182e-17  1.9678936850964404e-17  1.8194783956700975e-17  -2.4409406275506160e-17  -2.1208728249484769e-18  -3.2641362090848777e-16  1.4433155002187752e-16  1.2724957798502945e-16  1.3264684750659335e-19  1.2044983094347693e-17  3.2204110160691440e-16  2.9682312177528501e-17  -5.3677908002822198e-16  1.6782594009976337e-16  1.9923406784054646e-15  8.7190816884181710e-19  7.7036367563392746e-19  2.6524444976138025e-18  2.6435195370127523e-18  -2.9934266764553114e-16  4.0359267382362590e-16  4.1207423117121688e-20  2.5230997607425641e-20  4.8674130572863862e-21  1.1669396291400783e-17  2.4531522087848519e-17  1.7274339471787102e-16  1.6875007257584493e-16  1.7351861810277412e-16  3.3822945699630617e-17  3.4028241971048071e-17  -2.4358560962939702e-16  4.4951707700290936e-17  4.5716005334126774e-17  -3.4359344060085898e-16  3.7585919489037373e-16  2.3589990614041480e-17  2.1131767622106599e-16  5.2195677969396693e-16  1.0963487640968823e-16  1.4394949971899445e-16  4.4978386743563337e-17  7.2277122017094438e-20  1.6093256770537066e-17  1.2416073644169944e-17  8.9668495102382910e-21  1.8199446702470468e-17  6.1989712550307038e-21  1.1384570630708001e-20  3.9404460496334502e-19  4.1487055726541120e-21  8.0041186749378204e-18  3.8964073437610209e-17  6.1440027496759101e-17  1.7256641887952225e-16  1.4907924792274968e-16  9.2552795831405170e-17  -1.9480030513839862e-18  -5.5861708442150974e-17  -6.3129987991070479e-17  1.6501929563970459e-16  -4.9061526474439914e-16  2.4220908759737809e-16  1.6031253412985238e-16  1.4677455210445855e-16  1.1561559848994586e-16  8.4555797375494791e-17  4.0259284629897382e-17  1.1504729183191371e-16  -8.3596508231870441e-20  7.2052865174990509e-17  4.2423105878771878e-18  2.3621503096569179e-19  3.5359787682176915e-16  1.3938097200541246e-15  5.0136960683223337e-19  7.0578995772127310e-16  8.6570178551559503e-18  -7.1343443756888040e-16  3.8545828877501146e-18  3.2194977538838004e-17  1.4847665252672279e-18  2.2919426749788149e-19  6.1561669034866440e-17  -5.3311648042987852e-16  2.7204537363541825e-16  1.7193446943458503e-16  2.7142171385170246e-17  1.7696028303884869e-18  1.2504132144847278e-15  -6.0170475562621004e-16  -5.6673160388940074e-16  1.2105805900616678e-15  -1.8387620445732295e-18  3.5244768401901991e-17  2.2364553629172537e-17  1.2573803986372448e-17  5.6130799474468849e-18  -9.3421403672002155e-19  -5.6400007021921272e-18  2.5932090694962380e-16  1.3576538579284212e-16  2.8559555060923865e-17  3.3515000451633235e-17  2.0666450386379431e-16  3.5746046840296442e-17  5.7631815381120387e-16  2.4128577643998393e-15  1.1023589450239886e-18  -1.3719677994344940e-16  7.5739154590546262e-17  1.8320606255552270e-15  1.6298266737492497e-15  3.6296005098010872e-16  1.0542672054432230e-17  2.0645101272872983e-15  4.5815629740427884e-16  8.2306151907296728e-16  7.8040047830627036e-19  8.9309897309069182e-17  3.7140666808533256e-17  1.4500661137829887e-16  1.8710133814020231e-16  1.2877464968455452e-17  1.0127726055736422e-17  6.6610036111858301e-18  1.8345962707646663e-15  1.2042613496326583e-16  5.0835532347639862e-17  2.6813343994099335e-17  -2.9958979447491342e-18  5.8980000744939670e-18  3.6792684620107840e-17  4.2122997173338194e-17  1.1204419993312268e-15  4.1181422405380297e-16  1.5907133595862946e-16  6.0414308059678279e-17  1.4654297385870226e-16  1.6342190923350727e-16  3.0486750316632038e-17  5.8466390302396406e-17  2.9741563654612201e-18  2.7179882552424711e-18  -1.0077398339138220e-16  -5.2499054880312316e-17  9.1562120632445938e-17  9.8399902699192274e-21  1.5944528653943875e-20  4.1641789665882131e-17  7.1149522156807303e-17  7.0456445914898989e-17  1.3456929375579011e-19  1.7373339967578671e-19  7.7660044751626723e-20  8.9287522708511041e-18  1.2391865571017425e-15  4.2546852791075686e-17  1.9569839462615954e-20  2.2792038946748029e-17  6.7616580882790686e-17  4.3045463971347241e-17  2.8603810071497351e-18  2.1840337417720188e-17  1.8411667672785090e-17  1.4870256306471365e-17  1.0558770334832905e-16  7.2089487064112513e-17  2.1575232716089148e-15  1.0959348267653165e-16  7.5281860429966066e-19  1.9715874212882838e-20  2.0175194673552076e-20  -3.6660061173704511e-16  1.2244235673473214e-16  1.2944199211074960e-16  1.2768115472212175e-16  8.0979030338927316e-18  -7.5445383534617489e-18  1.5006733839562966e-16  1.5624652431556078e-18  1.2580419409595963e-15  1.6482715708617807e-16  2.0974408197848597e-16  1.8134893526743740e-19  2.7903917164653366e-17  2.0174652527557427e-19  1.1167686768505025e-16  1.6922744859279408e-16  3.0800759492272399e-20  1.1423938851223471e-16  2.6869062163715338e-16  -1.0766746695981354e-16  -5.8836305721060845e-16  6.7812270845852372e-19  2.8955485114650202e-17  1.7137421143820966e-16  1.7350629201740481e-16  -1.0552866926988554e-19  1.4366030112188334e-19  2.6602135891419710e-15  3.8968838872206514e-18  5.4002898567559982e-18  -4.4838894346251706e-16  1.7713590256689118e-18  -1.5790563306665324e-18  5.5945079683670160e-16  1.0940254942447175e-16  2.6592780652265439e-17  2.0735670956169192e-15  3.5578977919598853e-16  2.3207883087155785e-15  1.4603324208612933e-15  4.7040076258467059e-18  1.5745985660942588e-16  1.7061332845834335e-16  3.2172792863242698e-20  2.9743021849148368e-20  2.9873531946850380e-17  1.9671388009469337e-17  -3.1427979299476832e-16  -1.7616301987834794e-17  -2.3568561152533212e-19  1.1615152649087626e-17  -3.7371768543504664e-16  7.0654535141081859e-18  2.1961622870301305e-16  9.8494034808264374e-17  1.2652225288469347e-16  6.2388353284671901e-16  1.7038825546142019e-16  3.4862517641139151e-17  -8.1608974490062577e-16  1.1451394200078807e-15  1.2781322460338544e-15  8.8385725222523953e-17  3.6904210841562292e-17  2.5628239705409280e-15  1.5648207796548113e-16  1.2617395254893207e-15  5.8944201071387248e-16  1.0684721230200676e-18  1.0212538806411580e-15  3.5198028287417482e-16  1.3499722776886511e-15  1.3466170111244659e-16  8.8191180282427877e-17  1.0042407627257585e-19  3.8775506693884672e-16  1.5301859937956482e-17  3.4687478849045431e-17  6.1312999692057749e-17  1.4828120583256996e-16  1.6576256633866062e-15  -4.8033334172786516e-16  4.7923413143575638e-16  4.4115693286771877e-18  -1.1599588846313986e-17  2.0566697394972116e-15  6.8919034483432994e-17  1.5878956510869945e-16  1.3839732512126334e-18  4.5774571449975635e-19  1.6993611476206802e-15  4.9938236537685670e-19  7.5577273116130021e-17  1.6668852252909607e-16  2.7388033656905085e-15  1.1854845956132706e-20  1.7934748488692393e-17  1.7788872576078194e-17  3.5175846023337429e-17  1.0628565549533414e-19  1.5506534049242004e-16  1.6654153552591531e-16  5.4878887080226347e-18  2.7822048984714929e-15  5.4657784152853781e-16  1.3084705948036240e-17  1.6369444842844697e-15  7.5833735996243079e-16  -3.9943477195534996e-16  2.1819848353889912e-16  1.8189473289547450e-16  1.7288818677105795e-16  1.3635892715889123e-16  -1.2582781042579789e-16  -1.3874827184975702e-16  -6.0539746932566543e-16  3.2110082750124531e-17  2.0256877451273407e-15  2.6077521854172811e-17  4.4747616282295575e-17  3.7548324075604653e-19  1.5097881910920856e-17  1.1052540652288307e-16  9.5481128876781547e-18  5.1392948024507458e-16  3.1360412747925134e-17  5.5482093244527015e-20  1.4727944770353395e-16  5.6172657389735102e-16  1.7414941825968343e-18  -4.3704420603175451e-16  2.8747414649063097e-15  2.5585428291147145e-16  1.1307549424438848e-17  2.4610033765347422e-17  4.4750188648197096e-20  1.1284568838121772e-15  1.6624881082035865e-16  1.2314814005919807e-16  -1.4539665804860335e-16  1.2396247364985693e-19  1.6821861814577121e-17  4.0269704498090038e-17  1.8048434596610649e-15  2.2048377760622112e-15  1.3124439522891929e-16  1.3156207335058873e-15  6.9659495481317724e-18  1.7326184354702120e-16  1.7862729286143383e-19  2.9507805025424533e-19  1.7330149459072486e-16  5.2098062085739626e-17  3.5166120603477903e-16  6.8214635385772777e-18  3.0427920506421015e-16  6.8588033570998191e-19  3.0074623035069143e-17  2.8611320920272092e-17  1.8339504825310067e-17  1.2940075345590810e-17  1.2632871760203236e-17  1.0687653845433594e-15  5.6728959477507857e-16  1.7240525522227864e-15  3.8815601240884384e-17  1.2467929413911602e-17  -3.9234738151294887e-16  -7.1268537468042860e-16  4.3989457548097780e-17  2.6947203693816212e-16  3.5207716198829152e-17  4.3117964914060367e-17  2.0746086185432355e-17  1.0285549684443119e-15  7.6719064978895333e-17  1.8251996309216306e-16  9.3250089736430242e-18  -3.7653919190839382e-17  9.7270097411057044e-18  6.2976443181409244e-21  -4.1289276924817119e-19  1.9878880532679618e-18  -6.7318348567067030e-17  1.2020622614488638e-16  -7.5265114452668642e-16  7.3071538304753245e-19  1.1284674753106019e-17  5.2748759912884281e-16  3.9983955738852592e-17  3.8461007667769745e-21  1.2017533490519836e-20  2.8417287205513716e-17  2.4807409574173131e-17  1.3467089584761101e-16  1.4005333908074302e-16  3.0580704266236808e-18  -2.8041748026644604e-16  2.3570165504662805e-17  1.8859349606201138e-16  2.4096520114321748e-17  2.7186613794948128e-16  1.2790583257939653e-18  1.3716524497270259e-16  1.0918924313013346e-16  2.0408516369706549e-17  2.3243463418130813e-17  1.9966374232305977e-17  2.8932900540740292e-17  3.5627557669789461e-16  5.5428164704733425e-20  6.5966590138612833e-17  1.3158621296208171e-16  4.2351887855570873e-18  2.8726218291275480e-18  -1.1234686805543242e-16  9.2279938870047451e-17  -1.3981345987498405e-16  2.9427200243866290e-19  1.5677326041456534e-17  5.2732860438584075e-21  5.5657247062322966e-19  5.2507758517263671e-19  1.2338215579890502e-18  -1.7177974151732825e-17  -8.3387155571225045e-17  -5.0466370819214418e-18  5.7108944382142623e-21  8.3297432768307925e-17  2.0942734975386238e-19  1.6634244306886696e-16  1.7271132379998593e-16  6.4279779296480347e-18  2.3709761455699966e-16  7.8932606914278710e-17  1.3818258485836102e-17  -2.2546954768880836e-16  -5.4508080697178803e-16  1.7582368705496430e-17  1.7144199041052014e-17  3.1757149488074769e-20  5.9644692969561059e-17  1.7036016668597075e-16  2.6203344821108852e-17  -1.8416360773322679e-16  4.7892323619240346e-17  5.7099326128453339e-20  1.1946493960700172e-16  1.6483779674803705e-15  2.5622026138920289e-16  2.7261423812451084e-16  9.2601544101494987e-21  -3.2182010242460776e-17  1.4507929825087850e-16  1.2530034486666201e-20  3.1999672803032972e-17  7.0204389162858522e-18  4.3052119000218261e-18  2.5586805311721735e-16  -3.2478997052246554e-16  6.8694083850690208e-16  7.1506553600078015e-17  -1.2593408368660397e-16  1.5104246196286149e-16  1.6760969570107913e-16  1.3792685865778237e-15  1.5208689943414366e-19  1.6334732938510517e-20  1.4761206386732427e-16  3.6535672998180382e-16  3.5927553661647648e-17  7.1772093071591906e-18  -2.7183996910201273e-17  1.0885466305885192e-15  1.5645278606524495e-16  2.3414364265547687e-16  4.1628688554868883e-16  1.7316976543245055e-16  1.2935342057312275e-16  2.1179664076071435e-17  -4.2220584898224116e-20  1.9321210354183929e-18  3.7246009816803934e-17  1.7345068337953422e-16  3.1933091622947465e-17  3.5231908522755738e-17  3.2928668005373686e-17  7.7321099139226785e-17  3.4665535370984965e-17  2.6344565370514858e-20  9.5914709619577447e-21  1.7268681556556106e-15  1.4327993488068570e-15  6.5716425155574071e-17  1.7209626733259130e-16  9.1402816587535548e-16  -2.0524035167153450e-16  1.0285110692244425e-19  2.3092628639386815e-17  -2.4173446365750475e-16  6.3440284110926696e-20  -3.7895820098828822e-16  5.1733590426996641e-16  -7.3609686371375829e-16  6.9656259768096097e-17  -2.7846088984864642e-16  1.0500304803121143e-17  6.3007544270842909e-17  4.1916109576184494e-17  4.5503019215952266e-17  4.6643422381256822e-17  -6.0323452441975298e-16  1.1374644688649343e-17  -5.5295617078590358e-16  4.1041446125124208e-17  7.1066540376611067e-17  8.3098523472996090e-21  4.4872210233692227e-16  1.3172355630709248e-15  5.0994951517619151e-18  -2.2420636952711922e-17  2.3804573604788676e-16  2.1543996939631423e-17  -4.5027365614688320e-17  4.1880327770959785e-17  6.6127056479609628e-20  3.9284209943627523e-19  2.3620926109669723e-17  3.8115322003022645e-19  2.5453844416033897e-15  1.5450967400546378e-16  7.8445259861946175e-17  1.0250919800303861e-16  1.4787914773685093e-16  -7.0959405112950822e-16  2.6638346397102624e-18  2.5373410675694162e-16  2.4772272713661761e-15  1.1877247521179606e-15  -3.7860101734594461e-18  6.3901114500114711e-20  3.4244692086728172e-20  7.2113931398633348e-17  1.7261134024013231e-16  3.1802744856072943e-17  -3.5074016163969172e-19  1.6383251608289389e-17  -3.2946002271250570e-16  1.6469344001368611e-17  -2.5330678037089539e-16  1.8245849607432805e-17  1.2310300055052686e-17  1.8694608782359337e-17  1.5731562680130990e-16  1.6289592105144522e-17  -7.2335568991512126e-19  1.5535488457108016e-18  3.6456607062541377e-18  1.3221330296028759e-20  1.5920504493165270e-20  -2.9580095991498236e-20  1.6177905793848314e-16  1.7058030855542156e-16  1.7343761677887644e-16  1.8538725689913703e-17  1.0925991550822852e-16  2.7142915470039086e-17  6.8127019692327940e-19  1.0776261582266576e-16  1.1408538872118034e-17  4.3800357539429353e-17  3.6763579626488007e-17  3.9753518513120717e-21  3.7457141114002056e-17  6.7505676345706661e-18  4.0600564280547539e-17  3.6066308174481170e-17  3.7439074080298531e-17  -1.9607129561259540e-16  -2.3593349548405174e-16  -2.5861919350811922e-16  1.6841549845644849e-16  2.1291616376012233e-17  7.9459629408429022e-17  -4.8011583127874219e-18  -9.5944216648162201e-17  4.1460419274021767e-21  1.6781621818799272e-18  8.1251123174463658e-17  5.7161034744909379e-16  2.3949265001113917e-17  9.6002799364052773e-18  3.0078825617979202e-17  3.1846681741261217e-16  2.6514428264852798e-15  9.5753537500597071e-16  -3.7089986357291331e-17  3.9357595748847244e-17  2.2195208602252656e-15  8.4008516742482305e-17  1.0023731855803064e-16  1.1912739665389037e-15  2.1431816124358743e-17  9.4125180800272351e-17  1.7123739944123520e-16  1.6473818747571324e-16  1.6100355406848876e-16  1.7354616123734850e-16  1.1347540893749901e-16  4.3207468303672181e-16  1.5295768689242392e-19  9.0244228980020393e-16  1.2756101966743388e-16  2.9195968323028881e-19  2.6784157711593875e-15  1.5239388932766693e-22  1.6811870028966166e-16  1.0596272824197607e-16  1.8357198834830002e-15  1.9075870920495152e-16  9.7272044083173971e-16  1.1320989736046918e-16  1.0160273778264523e-17  2.4430121941831679e-15  2.6741029160904894e-15  9.7330468878615275e-19  8.0478501939052846e-20  1.7683150420250929e-15  2.8814144946432428e-19  1.2049895650934796e-19  4.4223170142766595e-16  5.8462249904190253e-18  7.5361232055079053e-17  9.6304749607668992e-18  8.2097014174044809e-17  -6.9624548471958817e-18  1.5745389709330558e-16  1.5068925265892587e-16  4.0654013042504380e-16  8.3338896843287394e-19  1.2967838985632801e-18  -1.4750618452896940e-18  6.3757958051097852e-19  7.7071807590763139e-17  1.7279086721551239e-16  1.5008943958177720e-16  1.4622847779606787e-16  1.4977981822248482e-17  1.3067435777365535e-16  1.2282107691494010e-16  5.6674487841609914e-17  1.5196897991920392e-17  2.5526663236688648e-18  1.6857359013130189e-18  8.7463038378320693e-17  1.5271642571035854e-16  1.6496733536689345e-16  1.6234639289322271e-16  1.5233809058955914e-16  3.0026774437265872e-16  1.3375132286193619e-19  5.8840642014127287e-17  5.7013772349708365e-17  5.9426319907962250e-17  6.3856010950459352e-17  4.8764908171970479e-17  1.3786126877065569e-16  1.5503084878280562e-16  8.9375073505392765e-18  -2.4690329903535521e-18  1.8373538871254963e-20  1.5088212058758960e-19  3.8048235692857656e-16  2.2855881805825100e-16  1.7189247923724737e-16  5.2949359185184549e-17  4.7203337199999246e-19  4.7229651920345661e-16  1.2080074409577152e-17  1.3916894875268828e-16  1.6324649442776466e-15  1.0144158261111964e-18  -8.1178554879018224e-16  -4.8423636140924658e-16  -7.2321825457838416e-17  3.0119625263424700e-19  1.8435298120032872e-17  1.7176847656488986e-16  1.5232079300858771e-15  2.6570871844023648e-16  1.7355690864120865e-16  6.1631328888584702e-16  4.4803759320408037e-17  1.3791561203852533e-16  3.1433814107228264e-20  1.7579470895448756e-17  1.3104993018617023e-15  1.7350599330829986e-16  1.7371708019567520e-16  4.4795551555992608e-17  2.2896745515887653e-17  7.9593954573007872e-19  1.7658959317633181e-17  9.2197620601409509e-19  3.1232931764137122e-20  -5.5351862626852829e-16  7.8483249038998233e-17  5.3404479317755058e-18  -6.0148049928532670e-16  2.5302293342819866e-19  7.0313462791191142e-16  3