<?xml version="1.0"?>
<VTKFile type="UnstructuredGrid"  version="0.1"  >
<UnstructuredGrid>
<Piece  NumberOfPoints="6486" NumberOfCells="12696">
<Points>
<DataArray  type="Float64"  NumberOfComponents="3"  format="ascii">0 2.5 0  0 0 0  2.5 0 0  2.5 2.5 0  1.25 0 0  2.5 1.25 0  1.25 2.5 0  0 1.25 0  1.25 1.25 0  0 0.625 0  0.625 0 0  0.625 2.5 0  0 1.875 0  2.5 0.625 0  1.875 0 0  2.5 1.875 0  1.875 2.5 0  1.770833333333333 0.7291666666666666 0  0.7291666666666666 1.770833333333333 0  0.9375 0.625 0  1.875 1.5625 0  0.642361111111111 1.163194444444444 0  1.341594827586207 1.883979885057471 0  0.46875 0.46875 0  2.03125 2.03125 0  0.3626104797979798 1.513178661616162 0  1.381740196078431 0.4564950980392157 0  0.9375 2.172619047619047 0  2.172619047619047 0.9375 0  2.096354166666667 0.4036458333333332 0  0.4036458333333333 2.096354166666667 0  1.684027777777778 1.163194444444444 0  0.3418803418803419 0.8693910256410255 0  1.642742622813391 2.162164207604464 0  1.275619849389031 0.8465650753054845 0  0.9136284722222221 1.434461805555556 0  1.732437511238546 0.3406962303960658 0  0.9714402568595876 1.029779313093998 0  1.52281746031746 1.485615079365079 0  2.1875 1.71875 0  1.06819722569879 0.2997236128493951 0  2.136114211309524 1.303478422619048 0  0.3125 0 0  0 0.3125 0  2.5 2.1875 0  2.1875 2.5 0  0.3200021620376328 1.192323085056694 0  0.6738456129277992 0.8304377375553881 0  1.757891808928991 1.861952730357003 0  1.5625 0 0  0.9375 0 0  0.3125 2.5 0  2.1875 0 0  2.5 0.9375 0  0 0.9375 0  0 1.5625 0  0.9375 2.5 0  2.5 0.3125 0  0 2.1875 0  1.5625 2.5 0  2.5 1.5625 0  0.7448220909826522 0.3003573636608841 0  1.027298850574712 1.871151477832512 0  1.331260495098891 2.197262878816185 0  1.207917681892289 1.582765010956622 0  0.4339993447432606 1.801186844743261 0  0.6337298768939392 1.443093039772727 0  2.049851190476191 0.6826636904761904 0  0.6584821428571428 2.219122023809524 0  1.89575676467455 0.9798457973793544 0  1.437570562095628 1.059380588255917 0  1.502090052505845 0.6987070896496241 0  0.2040860661083546 1.705323965099331 0  0.2083333333333333 0.46875 0  0.5070952039991439 0.2211150679997147 0  0.6916302856529919 0.5813591430410241 0  2.265625 1.953125 0  2.2265625 2.2265625 0  1.886424081252096 2.243391360417365 0  1.40625 0.202164758520858 0  0.2269345238095238 0.2269345238095238 0  1.152730869673694 0.5225850378741401 0  1.885631899587912 1.312095130148776 0  1.614808884009367 0.9049784971014416 0  1.890095442220658 0.5126535558463003 0  2.323168682795699 0.46875 0  2.268811725689575 0.2304742875213018 0  0.6002389442105756 1.967426444210576 0  0.1768313172043011 2.03125 0  0.2311882743104251 2.269525712478698 0  2.03125 0.176831317204301 0  2.280262553344767 0.6954945504579233 0  1.979219539285994 1.809922269642997 0  2.336309523809524 1.09375 0  1.09375 2.336309523809524 0  0.9314042474388009 1.662973812215543 0  0.1634067999087722 1.40625 0  2.337090640094896 1.40625 0  1.141616997467638 2.069311773587991 0  0.46875 2.338939559681489 0  1.542440307908715 1.734944797244472 0  1.556713687786879 1.956977865354753 0  0.8264238995344066 1.975424467820646 0  1.466326331454725 1.275271369760862 0  1.655675324257095 0.5444159974393489 0  0.3385416666666666 0.6479255698005697 0  0 0.78125 0  0.5236073939200119 0.984090461540625 0  2.091665741047893 1.519793517904215 0  1.71875 2.5 0  0.5356538886262603 1.623137930505009 0  0 1.09375 0  0.1932884281517095 1.015625 0  0.8569313582417669 1.2198915584249 0  0.8876981284879677 0.8329884081524883 0  1.115618488474214 0.7219586973356271 0  1.186950366204949 1.043465130075318 0  2.057459118787237 1.110823087309335 0  1.830651283878689 2.049810069572418 0  1.689107969301489 1.367247437031697 0  0.4921048768039656 1.298643370653124 0  0.8213975694444444 2.336309523809524 0  2.03125 2.5 0  1.049729400480002 1.283723261332814 0  1.308101375801673 0.6489479469700392 0  2.5 2.34375 0  0.4968777175037714 0.7562964879736076 0  1.40625 2.5 0  1.501347663534097 2.307027627307738 0  1.602813712048603 0.1926218191360736 0  0.8393082906308107 0.463778306132633 0  1.682663349152719 1.598471865581041 0  0.7774174680851571 1.560004941327907 0  1.554204170364662 0.3898593897892066 0  1.842184459051087 0.186443880058197 0  1.358107417651776 1.696381759610015 0  1.18859291992392 1.77598670078022 0  0.1875331222687418 0.7609599743339348 0  1.339536743965101 1.422080365801479 0  0.7788179348750389 0.9955343414928611 0  0.9062978492805438 0.1919636509126373 0  1.256007360640958 0.3160320559396114 0  1.09375 0 0  1.174986727221844 0.1594990293443933 0  2.34375 1.796875 0  2.318026474511116 1.589177949022232 0  2.34375 2.5 0  1.672742954892153 2.332882724550692 0  0.2683637361947215 1.874801596909639 0  2.174770749820102 0.5581009131310781 0  1.443279522965991 0.8870068372898454 0  0.3385416666666667 0.3571428571428572 0  0.78125 0 0  2.060421048269335 2.314363248763811 0  1.088078737088509 0.8967352118723447 0  1.087825368444708 1.454931510884769 0  2.018308232129541 0.8548495425854904 0  1.943987311736842 0.3246298523011434 0  1.71875 0 0  1.85337849796276 1.144833312386208 0  2.3486328125 2.1044921875 0  1.407588788651747 2.042968789119587 0  2.336309523809524 0.865366648092144 0  2.34375 0 0  2.5 0.15625 0  0.15625 2.5 0  0 2.34375 0  0.1638044648294291 1.242263417405867 0  0.356216654757926 1.032569427322806 0  0.3188217956111817 1.355736727000647 0  0.5924956460852111 0.36112522004736 0  0.6594216488965849 0.1603472116132387 0  1.841804599497131 1.72214349266521 0  0.15625 0 0  0 0.15625 0  2.115898634821499 1.894570904464496 0  0.7821877980253907 0.7129993435924866 0  1.003820447087786 0.4516053462784233 0  0.477562948779147 1.138333049293613 0  0.719493678605015 1.305655360135975 0  0.9772457618587566 2.020350128938537 0  0.8764738248887107 1.826219722709673 0  1.254787875123819 2.339010653832026 0  2.343597354852534 1.249982759769001 0  0.78125 2.5 0  0.46875 2.5 0  2.5 1.40625 0  1.09375 2.5 0  2.5 0.78125 0  2.5 1.09375 0  2.03125 0 0  2.5 0.46875 0  1.40625 0 0  0.46875 0 0  0 0.46875 0  0 1.40625 0  0 1.71875 0  0 2.03125 0  2.5 1.71875 0  2.5 2.03125 0  2.005424054645407 1.653223486966518 0  0.1538730573856537 1.559850281736677 0  2.33984375 2.33984375 0  1.166539506212474 1.922878979538754 0  0.3914885633949916 1.65887232812171 0  0.5795503163042564 1.766243562569382 0  0.399533125920212 1.946786875081388 0  0.7866324979014098 2.127719094551316 0  0.3654683023546834 0.1495701132219454 0  0.1527388747131078 0.6116379440619215 0  2.013737577140188 1.391056634712135 0  1.17635437372994 2.213329084238133 0  1.737118141866284 1.010577140843115 0  2.200707118087222 1.164723314085963 0  1.697018908736685 1.993548551451517 0  0.5387621649009668 0.6070503962352419 0  2.032805785855952 0.5330427622570983 0  1.082699501358059 1.667818725183932 0  1.503819781540653 0.5468420196858188 0  2.015409142866072 2.175941657590429 0  1.752057611265444 0.869642097111018 0  0.612251684107783 2.356045720700959 0  1.902817102342857 0.6607642211999982 0  2.159616561739693 0.7867739969338844 0  0.5120038350106624 2.197302352398502 0  1.888200216011548 1.919501662489862 0  1.495909909726654 2.16028358757309 0  0.489139876703609 1.443203008943564 0  0.8819175670410521 0.3301172743913011 0  1.882591144370812 0.8155965192707721 0  1.133979796994841 1.172526771862882 0  2.206217447916667 2.084147135416667 0  2.20361328125 2.36279296875 0  1.395746985657004 1.556054166359645 0  1.704383111516207 1.734750450338683 0  0.9575737847222222 2.36274223823052 0  1.035150984253136 0.1302833343179028 0  1.383966125325753 0.7651479963479179 0  1.64003252158672 0.6824316405528895 0  2.22550785055421 1.487078576356817 0  1.760964431499756 1.48495222505201 0  1.276460980673788 2.004207003584658 0  0.1341477688427096 1.828777507920502 0  1.542261434180652 1.155296658359034 0  1.334627911613854 0.9696897472490321 0  1.30794231473696 1.119420615785191 0  0.7028260459857245 0.4438906910721139 0  1.625757433094055 1.84268057552138 0  0.9818707849053143 1.165603626132254 0  2.0086489901463 1.243134585689553 0  1.934584460420609 2.374094051915812 0  1.798434376789567 2.38671361912528 0  1.206314791201715 1.382064292497919 0  0.6333752893366955 0.7023738550008095 0  0.7796219811205605 1.42573253164258 0  1.564399711917382 1.026040828857629 0  0.3385416666666666 0.4889012896825397 0  0.1041666666666667 0.390625 0  0.989112246382566 1.543537365516289 0  2.025724425454636 0.9846960595520872 0  0.6602885475034063 2.086117390485779 0  1.607130551925032 1.267198646640915 0  0.1317864544877056 0.8896173683400176 0  1.755387840017567 2.230364320056445 0  1.301540702984401 0.1216289692748247 0  1.433170657577442 0.3331052752740999 0  1.500459610550388 0.113513924782439 0  0.6494291520606965 1.029586599619295 0  1.010146149868299 0.794897284196169 0  0.3700844198238017 2.235390157870766 0  0.3360891767780704 2.36656279435396 0  1.876856241037701 1.437150669863757 0  1.778674102957329 1.245979347269706 0  0.5472829890977179 0.1005517127039925 0  0.4669074189005698 0.3416784232954367 0  1.472765289289269 1.850899166481903 0  1.555853593327178 1.608452097912802 0  0.6708955559113426 1.646561631116984 0  0.8164699620322933 0.5924479455478063 0  0.3167738989468366 1.758696809749795 0  0.2788007305565096 1.605499483471246 0  0.7821720982350511 0.181524936294752 0  1.376812251214195 2.313340247908297 0  1.785652202614777 0.5962261755537186 0  1.761467296310972 0.4679567244718574 0  2.2265625 1.8359375 0  2.3828125 1.9140625 0  0.5279531607054191 2.071552361614785 0  2.397573269551114 0.234375 0  2.383578172599618 0.3589298466020009 0  0.1024267304488855 2.265625 0  0.1164218274003825 2.141070153397999 0  0.2696857594953064 2.135405441512016 0  2.164961300137334 0.1375322943529536 0  2.137757548369486 0.2724194778647587 0  2.238873711826398 0.3626419179496562 0  0.1001414910226386 0.234375 0  0.2176339285714286 0.3478422619047619 0  0.2503620791333544 0.1061694061057066 0  2.336445461915368 0.1250451055247424 0  0.2154004640409726 2.3918124
[...]
<PointData  Scalars="f_16-2"> 
<DataArray  type="Float64"  Name="f_16-2"  format="ascii">-3.5119339179661833e-23  -8.0669812662035376e-22  -4.7928968704343679e-28  -3.6788760811158807e-26  -2.5248334803379025e-21  -7.5734931035132920e-24  -2.0517416392696991e-22  -7.5733258436840184e-17  -1.6460559173766102e-16  -1.3028478511915960e-16  -1.5836793456659331e-20  -4.5123260176797519e-23  -2.9894569892368162e-19  -8.8904177976683699e-27  -5.4199913571767769e-24  -5.3274214231353497e-24  -2.1998991461912166e-23  -3.2518684628288865e-20  -2.4898733130805845e-18  -1.1254007986478799e-16  -2.0366405462726713e-19  -4.0653067798722761e-16  -1.2290702566853901e-18  -5.2403275120876097e-16  -1.3744034494389512e-21  -1.3847528188532374e-17  -1.0238976874501676e-19  -2.0239975477769818e-20  -3.6511532562111132e-22  -7.3248360277664921e-25  -1.7025171665733580e-20  -2.6588925704228710e-18  -3.5719441468998968e-16  -9.8065788010216476e-21  -4.8944928040980385e-17  -1.4867399203830461e-16  -1.0189457469539050e-22  -7.0346811028112490e-16  -1.0323247708554271e-17  -1.4210807687045877e-21  -1.5004516044201027e-19  -5.9339612578304752e-21  -9.8159065216672458e-21  -1.3456737229575592e-17  -7.7751948093191385e-25  -1.1209565762150153e-24  -1.0236522340446468e-16  -1.1186727425404991e-15  -1.0023927285688881e-19  -1.7786187942032629e-22  -1.0813517058320023e-20  -3.0019287691535274e-23  -5.8827042672086953e-26  -6.0070022608981097e-25  -1.6410397057562361e-16  -9.5802237664081185e-18  -7.7336679012099186e-23  -2.3592095509379457e-28  -4.3081317954758438e-21  -1.1503988955177502e-22  -1.4261099131732072e-23  -2.7489793777416364e-18  -1.7038964373568410e-18  -1.8405531300267962e-20  -3.3456081327784122e-17  -8.5102381042634291e-19  -5.3763213408403542e-17  -1.5477483484744299e-22  -3.1737651874574560e-21  -5.7166707534268554e-20  -3.3144776721782860e-17  -1.0406565348871619e-18  -2.3973559903736586e-18  -6.1780433088789372e-16  -4.2540422020837147e-18  -3.7199140120900660e-16  -1.1330324176357537e-22  -1.8096864050094185e-23  -5.0790721912317406e-22  -1.1057771112957623e-21  -5.1368562904574511e-17  -3.7028289290928860e-18  -2.3293052471711707e-19  -1.9364165487964708e-18  -1.7478192834155660e-22  -2.0448991391487601e-26  -1.1406005324386017e-26  -1.2449555652811104e-19  -4.0164786009947416e-20  -1.1288505743660680e-21  -5.2669596763581214e-25  -2.2491575778099284e-24  -1.4204516841737256e-20  -5.8267553305381475e-23  -2.1190506345219463e-21  -1.6872924868838089e-17  -3.1433212671480230e-17  -2.1391484685166645e-22  -1.3299085747313043e-19  -4.6882941022729794e-22  -1.7812262640715607e-18  -1.8194339285740399e-19  -2.5593588708550395e-19  -3.0939907398814767e-17  -1.2481721030537133e-20  -7.6305838374510158e-16  -1.6883517811900242e-16  -5.8125763993536905e-16  -1.0410319173098673e-20  -6.3199809676908889e-23  -6.2843881123107048e-18  -1.2649657298353866e-16  -1.5263232021170547e-16  -5.2078785287829344e-16  -6.3075960149956984e-16  -6.8008992756068629e-17  -2.4708964047862228e-16  -9.6452937731052511e-21  -7.8519889835250793e-21  -2.7839263244643111e-18  -9.0196500599747865e-17  -8.0529033233024310e-22  -5.9789124334814166e-24  -3.0313849205394452e-16  -4.6847321329804783e-18  -1.8143680797295809e-25  -1.0342502800759574e-15  -1.6784858488600883e-22  -2.4150978286880133e-21  -1.3962006653190833e-22  -3.0524152635116841e-17  -1.3261469457499360e-18  -2.9301810332970020e-17  -3.3629154440260881e-21  -6.6629724586610003e-24  -7.6790144559077972e-18  -5.5411071254209161e-18  -2.2001336521049480e-16  -5.2835632765683660e-17  -9.9732384971945000e-16  -4.9534289006178518e-20  -2.7767468229437164e-20  -5.9776138232647831e-21  -5.8590830219479855e-21  -8.7326341660409112e-23  -2.6544056194974234e-22  -2.0943131426237499e-25  -8.0638428469361942e-22  -3.4935981562453463e-19  -1.7733241049508094e-24  -1.2228745607180726e-17  -3.7986544093443476e-16  -1.4759995467756622e-20  -3.9558992735175510e-23  -2.8911429037365506e-16  -1.1455089221223493e-16  -2.4500549661368567e-21  -3.3122143767978845e-24  -3.6655300139189358e-23  -2.5374467057926609e-19  -1.1393141222844398e-23  -1.2855024581309162e-19  -6.1306081645243759e-24  -5.6188571170228436e-27  -3.5095063141685766e-28  -3.3646635303449217e-23  -3.1169037901056857e-22  -7.4451548478272226e-17  -2.1571498532970496e-16  -4.2441572980002527e-17  -4.9049467608259746e-17  -1.3695216547153730e-19  -1.1788664186266136e-19  1.1298858541845468e-22  -1.7839987940550790e-19  -1.3264632923352917e-21  -5.6188068717546188e-16  -5.7936105666122468e-18  -2.2766842744157435e-16  -2.2534103716898207e-16  -2.1900079376249144e-19  -2.1959348980229996e-18  -2.3992068801604103e-21  -1.1662422640892180e-22  -4.7990901992319786e-23  -3.3727104674076717e-23  -1.3600657915682857e-23  -1.5062797682613416e-22  -8.8004286624305862e-26  -2.8225795862522895e-24  -6.6995941651595084e-25  -5.5436361204178706e-28  -6.9165951981282524e-22  -1.4598390645246965e-20  -7.4912975253572263e-17  -3.3136187118833279e-17  -2.0424641897183510e-18  -4.4829228618226190e-20  -1.0464343062693945e-23  -2.1810135588063649e-24  -2.4558073400490866e-20  -9.5341593874132249e-18  -1.3512263413372198e-24  -9.8423876018719323e-19  -4.0263942581774937e-18  -1.4071664572465457e-18  -1.4154520412873336e-19  -2.1896980450953070e-20  -1.2500166624001040e-18  -2.1553765106928321e-16  -3.9781992959924906e-20  -1.7833262140013542e-20  -7.1906554555366890e-19  -9.9147932034644037e-22  -4.9565223159541479e-20  -8.9752099118945833e-16  -1.8504788679076016e-23  -1.8744857147369525e-17  -9.9707287355137927e-20  -3.2749127196241330e-22  -2.1124698543526359e-19  -3.3970642201407999e-22  -1.4395921472311086e-21  -7.8371388809776495e-23  -4.2027176356452154e-21  -1.6500300458753727e-20  -1.9744491974311413e-20  -2.9812120200558195e-17  -1.7977814811744234e-18  -1.3388971952255743e-20  -3.3803353927216729e-16  -8.9399452356138730e-23  -4.2007297452956022e-24  -1.6842734024932719e-17  -4.2387714884082742e-19  -8.1665629509824386e-22  -1.0369900305892753e-20  -8.2346240272616184e-18  -1.1788578904379966e-19  -1.5122668526755169e-21  -1.0183403700352258e-18  -3.2044146790897237e-19  -6.4271491230269895e-19  -1.3574030612353781e-17  -5.8638902705917819e-17  -1.1457651873471445e-16  -7.8727983778849659e-17  -3.8358402631697963e-19  -5.6158772056523761e-16  -3.9323693555723753e-20  -6.5574780695375952e-23  -1.5986773411182819e-22  -1.2380074563340834e-16  -9.6917534417153626e-16  -1.0721702461692778e-16  -7.4816824858092945e-18  -8.8771817489285296e-16  -2.2685112408869760e-16  -6.0566282049085216e-17  -6.7482946901242908e-21  -2.4073245074163374e-20  -7.7714631243719538e-18  -1.7511492299917173e-16  -1.9730277848788275e-21  -1.9529545365991039e-21  -5.7867124939382153e-21  -3.3415514405128506e-22  -7.6925233620085623e-16  -2.7037246685733557e-16  -2.3859480975177877e-21  -2.3771533681253434e-22  -2.5388255020629222e-19  -9.3742982340964443e-19  -5.4225773584983023e-20  -1.0554888276784899e-16  -9.3791611867706092e-19  -3.7501834538692152e-18  -7.6842976747203095e-18  -1.9970105753440716e-16  -1.3632665190442373e-18  -6.5232712981795261e-18  -1.0826948052322948e-19  -2.8788411613524476e-21  -3.7360409198154341e-21  -6.0495595250083346e-22  -4.7107301792799366e-22  -2.4384366323665885e-23  -2.7256488613729744e-20  -1.1353056821866903e-27  -1.8247524750712442e-27  -1.3864805423814072e-21  -9.6229553653505361e-21  -1.0512080723294289e-20  -7.2074875255229977e-26  -1.0960893560033039e-25  -3.0119304896881055e-26  -2.8943750941919209e-17  -6.0451895515897155e-16  -1.1969685619683741e-19  -4.3138777244306570e-27  -1.6286254357943493e-22  -1.3107245913254789e-20  -6.9327883853018455e-20  -3.8667364524319285e-23  -3.2100307330609445e-17  -3.9267874928975610e-19  -1.1200779349342355e-18  -8.0568896966378950e-20  -3.5610978018703264e-18  -6.8584344485005725e-16  -1.3910980469488530e-19  -2.1941095698225029e-24  -6.5252203632923263e-26  -6.0642551600417419e-25  -2.3097749687214320e-24  -2.8512446245664462e-16  -4.3444374062875239e-19  -2.8609998174708659e-19  -2.1745491167416436e-18  -2.3941753524888608e-21  -1.3688977332770350e-17  -4.1088145199980568e-23  -6.9455013377967625e-16  -9.1385076995155814e-18  -5.4624035918975493e-18  -1.4894215032658250e-23  -1.4978766977702762e-20  -3.8019554569086978e-22  -5.9666490166413428e-20  -1.1113830602095404e-16  -7.9100651366663466e-24  -1.5968637794545368e-16  -1.7562967732716513e-16  -6.2428656729288858e-21  -5.0198430466973663e-21  -9.3381702422175246e-24  -6.1981111702126018e-22  -2.1301475667299956e-17  -5.1998832843485213e-17  -4.7174844417531020e-23  -8.6142932744435762e-22  -8.4856322878267367e-16  -8.1298120970743143e-23  -3.6669844795823152e-19  -1.6342424954223591e-21  -1.3483166249063631e-23  -4.4834636064298492e-23  -4.2478362377559371e-20  -5.0315868648256124e-17  -1.8826313715659914e-22  -3.3226377073737645e-16  -4.2180283946056908e-16  -9.8219480456957206e-16  -6.2804080079468467e-16  -1.7719130382265733e-21  -4.7663372238318788e-18  -9.8692302313434642e-17  -3.8552022622647086e-23  -1.8757742388017716e-23  -5.5919069805347199e-22  -1.4141349977473183e-22  -1.8653340485495882e-25  -5.3035103708294029e-20  -6.5614261699454129e-21  -5.5458728660429172e-19  -6.1147584823930774e-24  -6.7885019156812435e-22  -1.1209696318789868e-20  -7.9650425032323299e-20  -6.8868846903016699e-19  -7.7463313557869069e-17  -1.9769460778785944e-17  -3.5871282638492286e-17  -1.0998333680529531e-22  -5.6234775088988775e-18  -4.9922809220353550e-16  -1.5733902786400494e-16  -3.9589029044768989e-22  -9.7699664150900918e-16  -3.5217440738696595e-16  -8.8864243410391272e-16  -5.7389093972044108e-16  -1.5866006592538776e-21  -2.5838039336915062e-16  -5.8864503979522689e-18  -4.7781222121048100e-17  -5.1349660152594088e-19  -5.8021650646703316e-20  -5.6501085562026500e-23  -5.5821105702472524e-17  -2.4442244028148532e-19  -3.9454476148758422e-18  -5.1895517268403390e-21  -2.0497212027306743e-16  -8.8706717767373108e-16  -3.3174965394466455e-22  -2.6730614220091636e-17  -2.1625351419488295e-22  -2.7242509090123886e-22  -2.0537444802612855e-16  -1.5346077924869569e-16  -1.5431811979102511e-16  -3.9516640088732270e-20  -2.0238963410700691e-21  -3.6473465174000864e-17  -6.5603881452411098e-21  -6.0669052162141321e-22  -1.6707766846540970e-17  -1.0437987195657188e-15  -1.4716454217600051e-27  -1.2689933782243810e-17  -2.9400699641898008e-17  -1.0200354378971787e-16  -2.4582075611906559e-25  -2.4008122103820211e-18  -1.1198012865216073e-17  -7.4584545704729066e-19  -1.0468230468863317e-15  -4.3064477918848647e-16  -3.8009299540685232e-23  -2.3127654576751878e-16  -4.3512591269680947e-19  -4.2901759729137164e-20  -5.2183530059925294e-21  -7.4111308036546132e-17  -1.0834107689041588e-16  -5.1942257277331801e-19  -3.9311514044839651e-19  -3.1428541391365353e-20  -4.7939267442737638e-21  -1.5782728066126689e-20  -7.2982473689899464e-17  -2.1181045871898615e-22  -1.0919050590147768e-21  -5.7761858118737490e-25  -4.9144449847047174e-21  -1.0553365023179958e-19  -8.2779746788266909e-22  -7.1506602328564978e-20  -2.2171410750747978e-20  -5.3945856887369214e-25  -1.8390176059266237e-18  -4.5503251358900203e-16  -1.6155991566918780e-23  -8.4021775306552534e-25  -1.0893925863860204e-15  -1.3521772049570651e-18  -2.1297312486462312e-18  -2.3114149217919396e-19  -1.9272543714823324e-26  -1.4944859948091349e-17  -1.2598625374503788e-16  -8.6345800626517071e-21  -2.1965903782637280e-23  -4.5771618528767100e-23  -1.0097283187499070e-22  -1.2818579592720432e-16  -7.9387188011993080e-16  -1.8118906334583992e-16  -1.7312537542586253e-16  -2.8555670598319230e-18  -9.3134301456967855e-20  -6.4808625749297263e-17  -1.9839390606575411e-25  -3.1449244550959674e-25  -4.3536470455746566e-17  -3.6122191586828081e-21  -4.0131801353807646e-16  -1.4579707184185732e-20  -3.5490286490835042e-16  -1.8364401418935110e-24  -1.4447261229118947e-17  -5.9675618779301982e-17  -2.7057002011778461e-20  -3.1788435605977137e-20  -5.0061880576074893e-21  -4.0721397333384283e-18  -1.8630672362987544e-18  -1.8297992888648855e-17  -3.1529720458820651e-19  -2.9438093837079760e-23  -1.4138233992413960e-22  -2.0961957204367426e-23  -1.0670558662778383e-21  -2.3079369436485177e-16  -8.7566496732908014e-23  -1.2524739531051046e-16  -2.0438160031452265e-20  -4.1399314242358918e-16  -1.0190142396746326e-20  -3.6518885299566561e-17  -1.9444022674575079e-20  -6.7178779063185409e-21  -7.0746541195629642e-18  -2.4293879946455268e-25  -2.6125013589391040e-22  -1.4101520462741044e-19  -1.9690308878460707e-21  -2.3136550767750216e-19  -3.4067760124686265e-22  -1.6633584875508538e-22  -5.4439168720683456e-18  -2.2820881255137509e-16  -1.4151067513766123e-20  -2.0515330401613160e-27  -6.5436532895197101e-27  -4.8950209714351377e-22  -1.2671426392937281e-20  -5.3767190302640612e-19  -9.2808353646105692e-19  -1.7123742376805786e-19  -2.1004360708955654e-23  -1.1263178631639495e-18  -6.8080039964815950e-20  -2.5947576863222079e-17  -3.2696217102279001e-16  -4.3057013663817752e-20  -8.1348872743975124e-19  -8.5495562180391129e-20  -1.0676335284686293e-22  -1.4252534635274400e-22  -6.0563375203396055e-21  -5.0899599655685112e-19  -1.0720659721062775e-16  -4.9625442381533367e-24  -5.2810837797670335e-21  -7.7321472090654960e-19  -8.0659197076561610e-19  -2.4431277067459079e-19  -9.3202471398283191e-20  -4.3087828611492053e-20  -1.9544901166863915e-21  -1.7343344875130825e-23  -3.2607762683179739e-21  -3.4043845026199514e-26  -1.4541574830121171e-21  -3.8822990513634627e-22  -1.2775360611962841e-20  -1.9618994239187201e-23  -1.0512761450838133e-22  -3.5714149700975230e-23  -4.4027949324391180e-28  -3.9948234756162689e-20  -2.0441623478481721e-24  -1.3906027583138624e-16  -1.7599804182211273e-16  -2.2297564909147571e-18  -2.9076015821321536e-21  -1.8766144286226466e-22  -2.9072901230275576e-18  -2.7867356676631803e-24  -2.1867888864006297e-23  -3.0213353955610428e-17  -2.4628166628698011e-17  -5.8462904583925802e-27  -4.2335033037805031e-21  -6.2695965748949338e-18  -5.5010846384347480e-18  -3.2392423745068776e-20  -3.1674769671650976e-21  -1.8435818382532961e-26  -2.2696435457726625e-16  -7.6534555610803660e-16  -4.0999203383228225e-16  -2.2278607722355690e-18  -1.0530178434180772e-27  -7.2383578016105712e-19  -1.7111508271566800e-16  -8.4503633493506244e-26  -4.8527208937028217e-22  -3.7056317562194914e-22  -1.9145768793280667e-20  -4.0903241254100704e-20  -6.1573192178991058e-25  -8.4618114177270697e-18  -5.2090055267197023e-22  -5.8840154917308625e-24  -2.4947710906992549e-16  -1.7531759701794732e-17  -9.7718761461359178e-18  -5.4106758947290526e-22  -1.6270723987173327e-24  -3.2189281357138206e-18  -1.3394608374237020e-19  -3.8012135832648613e-19  -5.9097803496620842e-19  -3.5064780255792458e-24  -1.1146074530074004e-16  -1.8793686506286240e-16  -1.1415804797566446e-16  -7.6612574741501303e-19  -6.8217435177375099e-17  -1.2414085417702182e-16  -2.5554800002320739e-18  -9.9989196414094139e-22  -4.0388539845807104e-20  -1.8842300432436767e-17  -4.1328039304137087e-17  -1.9677019550166577e-17  -2.6273132161974468e-20  -1.1802529878922262e-18  -2.1426770672592284e-16  -2.0440597471737967e-17  -1.0541331168203363e-23  -1.3558588098177435e-24  -6.7914577245840114e-17  -1.1489629397255332e-16  -6.7670195807485541e-17  -2.5312075398973953e-17  -3.8886220093384656e-16  -1.6132108417476672e-19  -1.5741795319157563e-22  -8.5314184388278854e-21  -4.0830822654865834e-22  -2.0434572607996580e-25  -4.0705373004781036e-23  -4.3403781940193568e-19  -9.2204227131946616e-23  -1.8054956019585331e-16  -4.3920117025549159e-21  -3.8188966485239832e-18  -6.1090511355839717e-21  -2.2644643096077457e-21  -7.0502328650084689e-22  -2.0588349373371453e-21  -1.1624562155571089e-21  -1.3548015109393395e-21  -4.6972002079633790e-24  -6.9325992571788488e-18  -1.2907724179638031e-20  -1.0977423636136040e-27  -6.0035466345786916e-16  -9.0714623267197764e-16  -7.8352173578892818e-19  -1.7675805251287745e-20  -2.3585515493684145e-17  -6.7182703945263550e-19  -1.3432861452147030e-23  -4.6836169354625869e-20  -3.6132551849132279e-26  -1.2437915190501671e-24  -3.1282687083715213e-20  -2.3274100602096388e-21  -9.0240101022011038e-16  -2.8660278524871132e-18  -1.9597761579177018e-20  -7.6874103547740913e-20  -1.8718192563818949e-18  -1.5737997767277668e-21  -3.3112221692792237e-23  -4.6099178137520843e-18  -4.1654070658625382e-16  -2.4439507205489759e-18  -7.7815824207440943e-20  -1.7262739979284142e-22  -2.6437424185082462e-23  -1.2368892651472373e-20  -7.5070225857612156e-17  -4.7300580578519563e-22  -4.5258631075472039e-23  -3.9376712120870727e-21  -4.3901749065373724e-25  -6.2779769950199756e-23  -2.8414966217788008e-24  -9.7842658733057311e-23  -3.6647688003207256e-23  -1.7853886532856724e-22  -4.7717823768332937e-18  -4.4581781275692449e-23  -1.4026459871582175e-23  -1.3100681364792234e-23  -8.3921822448545940e-23  -4.8316163268089043e-24  -1.0345459091401965e-23  -1.4562577700365966e-23  -1.4808607596468506e-16  -1.0022795156164332e-16  -5.3351937546506946e-17  -1.8639358122147691e-22  -1.5306881888434681e-16  -1.2899402268768950e-20  -1.9972555140522836e-24  -1.2566842157285550e-19  -3.1960802775653909e-23  -4.1282202772744253e-21  -1.1365667105482493e-21  -2.6240673903561018e-28  -1.5322170114253771e-20  -3.8503573935273094e-22  -2.0015870476074051e-18  -4.3797621737077267e-17  -3.7779127272483560e-23  -3.7490953500319106e-25  -8.1156924051837435e-26  -7.7360708823696048e-26  -1.7758685948465395e-17  -1.2991212082123412e-22  -1.0459292210591324e-16  -8.2889413937300105e-24  -1.4374551175470834e-24  -2.7286888606670782e-28  -4.1999238476988691e-21  -2.0444595733547481e-20  -2.8977534518550232e-17  -1.5754913020610730e-22  -4.7603539293791186e-19  -6.6737995282516780e-22  -5.0511301885831010e-16  -1.0940896385567520e-15  -7.6288716715481564e-16  -4.4605846031549342e-22  -2.4445615716948631e-20  -1.0166806942476960e-15  -1.2975188349584400e-16  -5.2511615753235507e-20  -3.6922425679467521e-16  -1.0199709599899560e-17  -7.1207278337191871e-20  -1.9313656463045071e-17  -1.0200959346933943e-17  -5.4958366883001077e-18  -4.8855851355147752e-17  -2.0756045140339221e-16  -3.5410785295624534e-16  -2.9146810786291228e-22  -4.3750294556470029e-19  -6.3023821294960119e-19  -2.3392428300371895e-21  -1.1289928970154786e-15  -5.0179401531276866e-23  -1.1865399022637278e-17  -1.6637692049700007e-19  -4.4882396658508429e-16  -2.8477899693870860e-16  -2.8086546998076929e-17  -2.4359062381285823e-19  -9.3928117390122703e-20  -8.2812445307712040e-16  -6.9361328928186180e-16  -1.4779953531801120e-23  -6.5237706393379606e-23  -8.1468823760038260e-16  -2.1271948372512228e-22  -1.3166000462406059e-23  -9.1209434223987467e-17  -1.7972007642883440e-18  -2.3367030359340204e-16  -1.4735127245940886e-18  -2.2611295843227720e-16  -7.1093196002610652e-22  -4.0482326858575969e-18  -2.9349778550083033e-18  -2.0663038729910539e-20  -1.2851571003263246e-19  -7.9577468291704583e-20  -1.7872422610968933e-20  -2.2425726376304579e-20  -1.0531955291799759e-20  -3.3001810614909441e-17  -1.7132880616489286e-19  -1.0528303240174054e-18  -2.0006718765807426e-17  -3.6253499404272125e-19  -2.2783041126988323e-19  -1.3656247011787758e-21  -1.5111925112097414e-17  -5.7447758278625641e-21  -9.1622859817629114e-22  -2.8160414748876398e-20  -3.7887124498333054e-19  -7.3634612284878943e-18  -5.6823179938286717e-18  -1.9423807170095545e-18  -2.9929425435971311e-16  -1.4038315574945715e-25  -7.4527188946109871e-21  -6.5483933752197779e-21  -3.2219313014029132e-21  -5.4207620839063450e-21  -1.7034227273911162e-21  -1.5975434459715892e-21  -7.6619802503656561e-18  -1.2685837616162365e-21  -1.0501627825665469e-21  -1.0633419190643540e-24  -2.5684809562497967e-21  -1.0667669466645287e-17  -7.7286779471051810e-17  -8.5677659384074140e-17  -6.7104939342807480e-18  -8.1369758767148472e-25  -6.0722743252780890e-16  -1.8919231288904410e-21  -5.4095884292526228e-22  -7.8471806189314973e-16  -4.3474489668919746e-24  -5.970590027