<?xml version="1.0"?>
<VTKFile type="UnstructuredGrid"  version="0.1"  >
<UnstructuredGrid>
<Piece  NumberOfPoints="6486" NumberOfCells="12696">
<Points>
<DataArray  type="Float64"  NumberOfComponents="3"  format="ascii">0 5 0  0 0 0  5 0 0  5 5 0  2.5 0 0  5 2.5 0  2.5 5 0  0 2.5 0  2.5 2.5 0  0 1.25 0  1.25 0 0  1.25 5 0  0 3.75 0  5 1.25 0  3.75 0 0  5 3.75 0  3.75 5 0  3.541666666666667 1.458333333333333 0  1.458333333333333 3.541666666666667 0  1.875 1.25 0  3.75 3.125 0  1.284722222222222 2.326388888888889 0  2.683189655172414 3.767959770114943 0  0.9375 0.9375 0  4.0625 4.0625 0  0.7252209595959597 3.026357323232324 0  2.763480392156863 0.9129901960784315 0  1.875 4.345238095238095 0  4.345238095238095 1.875 0  4.192708333333333 0.8072916666666664 0  0.8072916666666665 4.192708333333334 0  3.368055555555555 2.326388888888889 0  0.6837606837606839 1.738782051282051 0  3.285485245626782 4.324328415208927 0  2.551239698778062 1.693130150610969 0  1.827256944444444 2.868923611111111 0  3.464875022477093 0.6813924607921316 0  1.942880513719175 2.059558626187995 0  3.04563492063492 2.971230158730159 0  4.375 3.4375 0  2.13639445139758 0.5994472256987903 0  4.272228422619047 2.606956845238095 0  0.625 0 0  0 0.625 0  5 4.375 0  4.375 5 0  0.6400043240752655 2.384646170113389 0  1.347691225855598 1.660875475110776 0  3.515783617857982 3.723905460714006 0  3.125 0 0  1.875 0 0  0.625 5 0  4.375 0 0  5 1.875 0  0 1.875 0  0 3.125 0  1.875 5 0  5 0.625 0  0 4.375 0  3.125 5 0  5 3.125 0  1.489644181965304 0.6007147273217681 0  2.054597701149425 3.742302955665024 0  2.662520990197781 4.39452575763237 0  2.415835363784578 3.165530021913244 0  0.8679986894865213 3.602373689486522 0  1.267459753787878 2.886186079545454 0  4.099702380952381 1.365327380952381 0  1.316964285714286 4.438244047619047 0  3.7915135293491 1.959691594758709 0  2.875141124191255 2.118761176511833 0  3.00418010501169 1.397414179299248 0  0.4081721322167092 3.410647930198662 0  0.4166666666666666 0.9375 0  1.014190407998288 0.4422301359994293 0  1.383260571305984 1.162718286082048 0  4.53125 3.90625 0  4.453125 4.453125 0  3.772848162504192 4.48678272083473 0  2.8125 0.404329517041716 0  0.4538690476190476 0.4538690476190476 0  2.305461739347387 1.04517007574828 0  3.771263799175824 2.624190260297553 0  3.229617768018734 1.809956994202883 0  3.780190884441317 1.025307111692601 0  4.646337365591398 0.9375 0  4.537623451379149 0.4609485750426037 0  1.200477888421151 3.934852888421152 0  0.3536626344086022 4.0625 0  0.4623765486208503 4.539051424957397 0  4.0625 0.353662634408602 0  4.560525106689535 1.390989100915847 0  3.958439078571988 3.619844539285994 0  4.672619047619047 2.1875 0  2.1875 4.672619047619047 0  1.862808494877602 3.325947624431087 0  0.3268135998175443 2.8125 0  4.674181280189791 2.8125 0  2.283233994935276 4.138623547175983 0  0.9375 4.677879119362977 0  3.08488061581743 3.469889594488945 0  3.113427375573758 3.913955730709506 0  1.652847799068813 3.950848935641292 0  2.932652662909449 2.550542739521724 0  3.311350648514189 1.088831994878698 0  0.6770833333333333 1.295851139601139 0  0 1.5625 0  1.047214787840024 1.96818092308125 0  4.183331482095785 3.03958703580843 0  3.4375 5 0  1.071307777252521 3.246275861010018 0  0 2.1875 0  0.386576856303419 2.03125 0  1.713862716483534 2.439783116849799 0  1.775396256975935 1.665976816304977 0  2.231236976948428 1.443917394671254 0  2.373900732409897 2.086930260150635 0  4.114918237574474 2.221646174618671 0  3.661302567757379 4.099620139144836 0  3.378215938602977 2.734494874063393 0  0.9842097536079312 2.597286741306247 0  1.642795138888889 4.672619047619047 0  4.0625 5 0  2.099458800960004 2.567446522665629 0  2.616202751603346 1.297895893940078 0  5 4.6875 0  0.9937554350075428 1.512592975947215 0  2.8125 5 0  3.002695327068194 4.614055254615477 0  3.205627424097207 0.3852436382721472 0  1.678616581261621 0.927556612265266 0  3.365326698305438 3.196943731162083 0  1.554834936170314 3.120009882655813 0  3.108408340729323 0.7797187795784133 0  3.684368918102174 0.3728877601163941 0  2.716214835303553 3.39276351922003 0  2.37718583984784 3.551973401560441 0  0.3750662445374837 1.52191994866787 0  2.679073487930202 2.844160731602957 0  1.557635869750078 1.991068682985722 0  1.812595698561088 0.3839273018252746 0  2.512014721281916 0.6320641118792227 0  2.1875 0 0  2.349973454443689 0.3189980586887866 0  4.6875 3.59375 0  4.636052949022233 3.178355898044465 0  4.6875 5 0  3.345485909784306 4.665765449101383 0  0.536727472389443 3.749603193819277 0  4.349541499640203 1.116201826262156 0  2.886559045931982 1.774013674579691 0  0.6770833333333334 0.7142857142857143 0  1.5625 0 0  4.120842096538671 4.628726497527622 0  2.176157474177018 1.793470423744689 0  2.175650736889416 2.909863021769539 0  4.036616464259081 1.709699085170981 0  3.887974623473683 0.6492597046022868 0  3.4375 0 0  3.70675699592552 2.289666624772415 0  4.697265625 4.208984375 0  2.815177577303495 4.085937578239174 0  4.672619047619047 1.730733296184288 0  4.6875 0 0  5 0.3125 0  0.3125 5 0  0 4.6875 0  0.3276089296588581 2.484526834811734 0  0.712433309515852 2.065138854645612 0  0.6376435912223634 2.711473454001295 0  1.184991292170422 0.7222504400947201 0  1.31884329779317 0.3206944232264773 0  3.683609198994263 3.44428698533042 0  0.3125 0 0  0 0.3125 0  4.231797269642997 3.789141808928991 0  1.564375596050781 1.425998687184973 0  2.007640894175573 0.9032106925568466 0  0.955125897558294 2.276666098587227 0  1.43898735721003 2.611310720271951 0  1.954491523717513 4.040700257877075 0  1.752947649777421 3.652439445419346 0  2.509575750247638 4.678021307664052 0  4.687194709705067 2.499965519538002 0  1.5625 5 0  0.9375 5 0  5 2.8125 0  2.1875 5 0  5 1.5625 0  5 2.1875 0  4.0625 0 0  5 0.9375 0  2.8125 0 0  0.9375 0 0  0 0.9375 0  0 2.8125 0  0 3.4375 0  0 4.0625 0  5 3.4375 0  5 4.0625 0  4.010848109290813 3.306446973933037 0  0.3077461147713075 3.119700563473354 0  4.6796875 4.6796875 0  2.333079012424948 3.845757959077508 0  0.7829771267899832 3.317744656243421 0  1.159100632608513 3.532487125138763 0  0.799066251840424 3.893573750162776 0  1.57326499580282 4.255438189102632 0  0.7309366047093668 0.2991402264438908 0  0.3054777494262156 1.223275888123843 0  4.027475154280377 2.78211326942427 0  2.35270874745988 4.426658168476266 0  3.474236283732569 2.021154281686229 0  4.401414236174444 2.329446628171927 0  3.39403781747337 3.987097102903034 0  1.077524329801934 1.214100792470484 0  4.065611571711903 1.066085524514197 0  2.165399002716117 3.335637450367864 0  3.007639563081306 1.093684039371638 0  4.030818285732145 4.351883315180857 0  3.504115222530889 1.739284194222036 0  1.224503368215566 4.712091441401919 0  3.805634204685714 1.321528442399996 0  4.319233123479386 1.573547993867769 0  1.024007670021325 4.394604704797005 0  3.776400432023095 3.839003324979723 0  2.991819819453308 4.320567175146181 0  0.9782797534072181 2.886406017887129 0  1.763835134082104 0.6602345487826022 0  3.765182288741625 1.631193038541544 0  2.267959593989681 2.345053543725764 0  4.412434895833333 4.168294270833333 0  4.4072265625 4.7255859375 0  2.791493971314009 3.11210833271929 0  3.408766223032414 3.469500900677365 0  1.915147569444444 4.725484476461039 0  2.070301968506271 0.2605666686358055 0  2.767932250651506 1.530295992695836 0  3.280065043173439 1.364863281105779 0  4.45101570110842 2.974157152713635 0  3.521928862999512 2.96990445010402 0  2.552921961347576 4.008414007169315 0  0.2682955376854191 3.657555015841003 0  3.084522868361304 2.310593316718068 0  2.669255823227708 1.939379494498064 0  2.615884629473921 2.238841231570381 0  1.405652091971449 0.8877813821442277 0  3.25151486618811 3.68536115104276 0  1.963741569810629 2.331207252264507 0  4.017297980292599 2.486269171379106 0  3.869168920841219 4.748188103831625 0  3.596868753579134 4.77342723825056 0  2.41262958240343 2.764128584995838 0  1.266750578673391 1.404747710001619 0  1.559243962241121 2.85146506328516 0  3.128799423834764 2.052081657715259 0  0.6770833333333333 0.9778025793650794 0  0.2083333333333333 0.78125 0  1.978224492765132 3.087074731032578 0  4.051448850909273 1.969392119104174 0  1.320577095006813 4.172234780971559 0  3.214261103850064 2.534397293281829 0  0.2635729089754111 1.779234736680035 0  3.510775680035133 4.460728640112889 0  2.603081405968802 0.2432579385496493 0  2.866341315154884 0.6662105505481998 0  3.000919221100777 0.2270278495648781 0  1.298858304121393 2.05917319923859 0  2.020292299736597 1.589794568392338 0  0.7401688396476035 4.470780315741533 0  0.6721783535561408 4.733125588707921 0  3.753712482075402 2.874301339727514 0  3.557348205914658 2.491958694539413 0  1.094565978195436 0.2011034254079851 0  0.9338148378011396 0.6833568465908735 0  2.945530578578538 3.701798332963805 0  3.111707186654356 3.216904195825605 0  1.341791111822685 3.293123262233967 0  1.632939924064587 1.184895891095613 0  0.6335477978936732 3.517393619499591 0  0.5576014611130192 3.210998966942492 0  1.564344196470102 0.3630498725895039 0  2.75362450242839 4.626680495816594 0  3.571304405229554 1.192452351107437 0  3.522934592621944 0.9359134489437148 0  4.453125 3.671875 0  4.765625 3.828125 0  1.055906321410838 4.14310472322957 0  4.795146539102229 0.46875 0  4.767156345199235 0.7178596932040019 0  0.2048534608977711 4.53125 0  0.232843654800765 4.282140306795998 0  0.5393715189906129 4.270810883024032 0  4.329922600274667 0.2750645887059072 0  4.275515096738972 0.5448389557295173 0  4.477747423652795 0.7252838358993123 0  0.2002829820452772 0.46875 0  0.4352678571428572 0.6956845238095237 0  0.5007241582667088 0.2123388122114133 0  4.672890923830735 0.2500902110494848 0  0.4308009280819452 4.783624996516437 0  2.104871305393774 4.438653689007242 0  0.2274454167838428 0.2274454167838428 0  3.446466574593436 0.4359605369011901 0  2.12354112127588 1.217588426759619 0  2.309175236825235 0.7888355970690434 0  2.556178570281936 1.054299163237582 0  0.578683248637
[...]
<PointData  Scalars="f_800-2"> 
<DataArray  type="Float64"  Name="f_800-2"  format="ascii">7.3404986741061588e-12  1.1780060385953271e-11  7.1334678749422297e-12  6.9883488348420404e-12  1.0323918910176840e-11  7.1317718207651905e-12  7.2339565179584926e-12  1.0369708161659171e-11  1.0262477660281739e-11  1.1376334508320480e-11  1.1355986461921674e-11  7.1884529433461618e-12  8.9120477606636062e-12  7.1287017346347598e-12  8.8572540636028256e-12  7.1467518006641944e-12  7.2196053984287885e-12  9.1242968666471783e-12  9.1971209734767978e-12  1.0913798713570014e-11  8.8728632198836230e-12  1.0545754950849077e-11  8.9102630477418581e-12  1.1503430800876872e-11  8.3228627529025686e-12  9.8100836812710132e-12  1.0044737816386420e-11  8.1529086732567333e-12  8.0580838480345378e-12  8.2562245806774074e-12  8.3812501680743493e-12  9.3591527743271970e-12  1.1049202170848367e-11  8.1695845760323418e-12  1.0283162486541719e-11  9.9892619276549336e-12  9.2149389476844332e-12  1.0761988422189341e-11  9.6753955298196951e-12  8.0338813680155834e-12  1.0678592957925202e-11  8.1635175315757770e-12  1.1654445799345105e-11  1.1660226892565341e-11  7.1488833249207539e-12  7.2297190044471062e-12  1.0492915380200046e-11  1.1128512411940776e-11  8.9185155272264682e-12  9.6222076920460828e-12  1.0900497485257760e-11  7.2982897029403603e-12  8.0116508516670369e-12  7.1205940105034465e-12  1.0940175233195602e-11  9.6859059004750500e-12  7.2209266944907927e-12  7.1308658024242025e-12  8.1913062988240618e-12  7.2288474184043808e-12  7.1352730298034942e-12  1.1203684877730880e-11  8.9502517040773642e-12  8.0722548954200177e-12  9.6644907869184195e-12  9.1100552256673475e-12  9.9789182060946375e-12  8.3872472625540752e-12  8.0078360578379819e-12  8.8113687623568779e-12  9.9364343487036900e-12  9.7812214393159557e-12  9.3467284114784045e-12  1.1540784410196402e-11  1.1490404921451517e-11  1.1267697861607269e-11  7.8146448938188940e-12  7.7709448506548334e-12  7.9509233057732236e-12  9.9907036165658442e-12  1.1690027224963238e-11  1.0527260338468713e-11  8.8500334932095294e-12  9.5225088785055572e-12  8.8140183926899896e-12  7.6282244739876898e-12  7.7852093327592216e-12  8.6811551396648506e-12  8.5001915766146934e-12  7.8465663513902007e-12  8.4383928866691039e-12  7.7421078723522159e-12  8.5730851325405758e-12  7.5954098737399945e-12  7.6942105800484559e-12  9.4651489548773462e-12  1.0044484801989444e-11  7.5952446483287201e-12  8.4252548058901603e-12  7.6524345505126409e-12  9.2931646273032341e-12  8.7311361644735315e-12  8.6705408692452451e-12  9.8611426416725571e-12  9.4084746891854226e-12  1.1352532439821709e-11  1.1176119066512928e-11  1.0866665612448321e-11  8.3010157731316935e-12  7.2252045039097642e-12  9.5542671401332554e-12  1.0671715741604486e-11  1.0823136086396321e-11  1.0440830741431376e-11  1.0968284295213841e-11  1.0598532687129657e-11  1.0451471172497386e-11  8.3735329342082172e-12  8.4757488686743013e-12  9.3455207117966678e-12  1.0278757671291539e-11  7.6666596137366024e-12  7.2213427328675498e-12  1.0332126364671463e-11  1.0216444206798155e-11  7.1047106753087253e-12  1.1220403073438637e-11  7.2336412549707042e-12  7.7738070047295795e-12  9.5311337206832604e-12  1.1068168436142635e-11  9.3163229427449024e-12  9.7121595434627567e-12  9.6533565244374509e-12  8.9305279962460552e-12  9.3959215937443149e-12  9.1848446930069902e-12  1.1204772690604454e-11  9.9789360077162643e-12  1.0876617972236713e-11  1.0956643458149299e-11  1.0309469938500962e-11  1.0624214425921222e-11  1.0468579287627502e-11  7.5912276877108822e-12  7.6559726874573417e-12  7.1745372717102606e-12  7.6857933980950075e-12  8.9121279421520807e-12  8.0381728603183195e-12  9.9272533818588218e-12  1.1613328265585821e-11  1.1147205225655886e-11  7.7443345325535898e-12  1.0647456928236951e-11  9.9544086739080568e-12  8.4749023833924496e-12  8.6645607009696592e-12  9.2485027043706789e-12  8.9259167855456910e-12  7.5625717503264576e-12  8.4971392235608724e-12  7.5863773519902861e-12  7.5713760956101046e-12  7.1337042181399858e-12  7.3559095895064999e-12  7.7542378374550171e-12  1.0389617364580355e-11  1.0783771261458999e-11  1.0157264513287377e-11  1.1399577296245118e-11  1.1315537634357928e-11  8.9226110983038386e-12  1.1742129455568911e-11  1.1737926580472099e-11  8.2122023734470854e-12  1.1133343787198462e-11  1.0798850973276788e-11  1.0592657810206305e-11  1.0266619288216208e-11  8.5596258630725277e-12  9.0609803323699985e-12  7.6826404867390075e-12  7.5745030724180448e-12  7.2332590491931181e-12  7.2144799816203963e-12  7.1359854870139890e-12  7.2201605861525031e-12  7.1219508834032015e-12  7.1246164080552871e-12  8.4409663139749911e-12  7.1357109330883100e-12  9.9828984361768395e-12  1.1525290730097385e-11  1.1538021345940428e-11  1.0037839333298926e-11  9.3085891857755691e-12  8.4661996755262777e-12  7.1408341859166814e-12  7.1500206253516857e-12  8.5294498211847038e-12  9.6935523363338726e-12  7.4452082512775164e-12  8.8154058278663374e-12  9.4654881264264370e-12  9.2068842726972957e-12  8.7388196744407483e-12  8.2628490161053090e-12  1.1618030905906507e-11  1.1392380703398623e-11  8.5076272513820267e-12  8.0447760215319020e-12  9.2216389389483590e-12  7.9758307038439535e-12  8.6366947081516213e-12  1.1400762413668620e-11  8.4301136477096011e-12  9.4509306498317830e-12  9.7723298335156149e-12  8.1020787240708874e-12  9.1769836678145781e-12  7.6423457827658237e-12  8.7846093559330863e-12  8.0861135995874649e-12  8.0938363375118549e-12  8.6786312288367723e-12  8.1702155520863508e-12  9.9713199170472101e-12  1.1000697893027321e-11  8.8365616076707150e-12  1.0470605294493532e-11  7.9273171173092852e-12  7.5667469419634788e-12  9.7192437739871047e-12  9.1658569643594420e-12  7.6012924344415579e-12  1.0734560619176080e-11  1.0052846831153411e-11  9.4513402404167654e-12  7.9174925044587558e-12  9.1620167819656063e-12  8.5965294749517461e-12  9.0334020037949990e-12  9.6983039231126067e-12  1.0160602784983233e-11  1.0211061708816414e-11  1.1262987481873196e-11  9.0250943726188681e-12  1.0564463598166179e-11  8.5137822740481314e-12  7.5764724927083744e-12  7.5362189134762332e-12  1.0119334021199560e-11  1.1282932608149333e-11  1.0010648818924701e-11  9.6469966983167312e-12  1.1539685911612529e-11  1.1605521482918126e-11  9.7441998006370901e-12  8.4595807253067937e-12  8.3674339092280474e-12  9.5441781860870515e-12  1.1016926944797759e-11  7.9803170348230145e-12  1.0216159979048141e-11  9.9280869051193309e-12  9.7718140308135094e-12  1.0790216245276457e-11  1.0788983901686948e-11  7.9418447154987465e-12  7.5750730115206328e-12  8.8703078293567861e-12  9.1255125063728476e-12  1.1446475628977109e-11  1.1527935829463978e-11  9.0070303661811614e-12  9.5111494041812518e-12  9.5040729550679094e-12  1.1103482153235515e-11  9.2195728041746453e-12  9.5900883963185780e-12  1.1149828142873811e-11  7.7510705292557012e-12  9.0859349423509254e-12  9.1491762087925549e-12  7.9231216815764171e-12  7.4827448847627265e-12  8.4087010288468718e-12  7.4148732593510900e-12  7.4627160918469784e-12  7.9536820393902487e-12  8.1947150671239320e-12  8.2196387999889171e-12  8.0759217524969263e-12  8.1477688518442269e-12  7.8667898089879936e-12  1.1714435069300121e-11  1.1654017388197927e-11  1.1696521380352729e-11  7.5931493455217704e-12  7.5967148037880528e-12  8.0205857161825469e-12  1.1746239449321255e-11  9.2327205276342836e-12  1.0697002757811208e-11  1.0519313024912267e-11  1.0275473291236099e-11  8.6340304694555550e-12  9.4424902795598322e-12  1.0620224211656138e-11  8.7377535866289914e-12  8.7035194296230379e-12  7.4872411018506342e-12  7.4502586229753808e-12  7.4430547630073939e-12  1.1395932954753786e-11  8.8786902458676893e-12  8.8707728301239947e-12  9.7049482086685438e-12  8.0491356630600729e-12  9.6832752783085306e-12  8.9344514801913017e-12  1.1041390029889728e-11  9.4325203337122233e-12  9.2089221285267139e-12  8.0585582473376422e-12  1.1030459713338281e-11  7.9088837007364931e-12  8.2848544841798593e-12  1.0599001188932365e-11  7.4497680000009945e-12  1.1281752449271565e-11  1.0327017166506029e-11  8.3404696089684555e-12  8.4728764805669802e-12  8.5532965680243434e-12  7.4609783997214795e-12  9.9386870192038798e-12  1.0210567402237796e-11  7.3615256770821529e-12  7.8359798186515849e-12  1.0746345621411745e-11  9.4372020876516917e-12  9.4054541445949491e-12  8.2518405249725795e-12  9.0504075347979501e-12  7.3660754277388304e-12  8.4585146593094440e-12  9.9921352870357412e-12  7.5221138718504242e-12  1.0247920009668163e-11  1.1208627833980485e-11  1.1460886250582722e-11  1.1441529858139952e-11  9.4075325338848272e-12  9.5024264322868088e-12  1.0526737127756015e-11  7.3601198623783207e-12  7.3605575040128483e-12  7.4458162497278327e-12  7.6028102752758625e-12  7.2283058876389239e-12  8.5877565059601628e-12  8.1640737627889491e-12  1.0027966478672199e-11  7.4431862592574401e-12  9.7045753492190066e-12  8.3542216892388614e-12  8.4303846719452965e-12  8.8011757648873170e-12  1.0070899573255413e-11  9.8794752902370020e-12  1.1596323391216194e-11  7.9996556698348409e-12  9.4756043861791883e-12  1.0617876403859108e-11  1.0441450737740998e-11  7.4517764134968220e-12  1.0970050205317925e-11  1.0985741917616108e-11  1.1093304776807795e-11  1.0826648968107876e-11  8.5982625636175012e-12  1.0217485770789499e-11  9.1900663382983126e-12  9.7028395336115605e-12  8.6935415131643745e-12  8.3017961932981740e-12  7.7580223564480908e-12  9.7605051133342851e-12  1.0309962051083129e-11  1.1378181597724340e-11  7.9873025613984228e-12  1.0979332091760591e-11  1.0928032069147584e-11  8.0621217523475654e-12  9.8551791591044243e-12  9.4520776685312765e-12  7.7265121105220411e-12  1.0110917599597620e-11  1.1499955217472293e-11  1.0859344158750199e-11  8.6480242089295380e-12  8.1976344968269653e-12  9.8170143918320278e-12  8.2462629565132316e-12  7.5739585438032331e-12  9.7305392654522551e-12  1.1107651341663968e-11  7.3398210678146261e-12  1.0450931112176171e-11  1.0362078384276030e-11  1.0497102021501032e-11  8.0039723521652022e-12  9.3309250589644448e-12  9.7350816904172785e-12  9.0799703792912571e-12  1.1346180488155527e-11  1.0677314258820034e-11  7.1972809794159376e-12  1.0331211008141400e-11  8.7611631641660367e-12  8.7961247024485679e-12  7.9734934619652061e-12  1.0144230962338235e-11  1.0431533644622873e-11  8.9617143288046938e-12  9.1127778123804419e-12  8.7100891617773552e-12  8.4865077080793912e-12  1.1254158520615672e-11  9.8975654677529434e-12  7.4424326647321652e-12  7.7937441293257719e-12  8.4238017667690795e-12  1.0297519583439961e-11  8.5985458254687783e-12  1.0000522761745565e-11  8.4435362443216552e-12  1.1204913930237449e-11  7.7770418152999328e-12  9.2743803177816359e-12  1.0669025196474755e-11  8.9991222757815042e-12  7.3792716912809809e-12  1.0992660542230990e-11  9.3401509348567497e-12  9.9987715516895191e-12  1.0857239919103628e-11  7.7931035455718869e-12  9.4282838630766201e-12  1.0682580626249400e-11  7.9625964777670819e-12  7.5786146190187963e-12  7.8774319556077775e-12  7.2174149779679742e-12  1.0791349841974251e-11  1.1229688975338214e-11  1.0168568942167435e-11  1.1152429618926503e-11  9.2436967149554788e-12  9.5923260805405789e-12  1.0326934684286309e-11  8.2298640134165102e-12  8.3114089103116438e-12  1.0129330154963014e-11  7.8719143336367998e-12  1.0896471694102821e-11  9.6031060187485825e-12  1.1325573175187474e-11  8.6879464496035494e-12  1.1154016562186539e-11  1.0981272132266382e-11  1.0491255989385362e-11  1.0131959451561198e-11  1.0132865771033191e-11  9.1650670833425646e-12  8.9514631093238636e-12  9.5859305510925723e-12  1.1535595209425647e-11  7.2468410942037973e-12  7.8279979679355405e-12  7.7760651551702791e-12  7.8435732111595891e-12  1.0483037602097369e-11  7.2292999948115406e-12  1.1182002323427179e-11  1.0636890939488648e-11  1.0454775852635985e-11  8.2167698132629814e-12  9.8324555141991293e-12  9.8543254348894728e-12  8.2690461632248582e-12  9.7399067293156117e-12  7.1191676980213853e-12  7.6253702603948056e-12  8.7663560761489555e-12  8.1489905416275972e-12  8.8358085090648938e-12  8.1320508395375385e-12  8.5629337835948932e-12  9.5234560228432029e-12  1.0377512271342261e-11  1.1595036586913154e-11  7.1312251079915447e-12  7.3757512351300418e-12  7.4638057443682917e-12  1.0889327097417933e-11  9.0182855197177585e-12  9.1308155430946792e-12  9.0381483186996949e-12  7.5119128742235263e-12  1.0807093959229268e-11  8.3278725633578974e-12  1.0823071109934187e-11  1.0753583857630744e-11  8.5904616633802501e-12  9.1118701387244847e-12  8.6342349257607813e-12  7.4201667221285705e-12  7.4358153328458899e-12  1.0578335049185989e-11  1.1087370520961432e-11  1.0156695910503789e-11  7.6937013331798822e-12  8.0317934753217143e-12  8.9021250266269489e-12  9.1578602688317890e-12  8.9970519662183193e-12  8.7786856887516313e-12  8.4992559337236624e-12  8.1602036518428877e-12  8.2380750128364496e-12  1.0378989320060285e-11  7.1282803352123894e-12  8.2959411763401507e-12  8.3519235584013950e-12  8.6264078040245028e-12  7.3642465518951514e-12  7.7032159899362332e-12  7.3970370504223069e-12  7.1261770858234505e-12  8.2063186075104277e-12  8.2211323569246466e-12  1.0662602805003923e-11  1.0634770528519524e-11  9.4436098976456791e-12  7.9251262328574601e-12  7.4621162706767878e-12  9.3382459401157367e-12  7.3523299474048097e-12  7.7455591477330642e-12  1.0115388792471502e-11  9.9686356467907974e-12  7.6727707415461861e-12  8.0683551343456632e-12  9.2793979806735202e-12  1.0933146221505725e-11  8.6471328742004255e-12  7.8007654052571713e-12  7.8337830554434267e-12  1.1654521050929005e-11  1.1606512341433508e-11  1.1559557156510378e-11  8.9871441692716042e-12  7.3488041015479428e-12  9.1464397000233260e-12  1.1062253959658309e-11  7.3584396994255781e-12  7.7705038328374267e-12  9.7341294961976373e-12  9.2965493128100902e-12  8.2626183134925146e-12  7.3105338713669490e-12  9.6514164453371850e-12  7.7897693789140731e-12  7.3783922425256417e-12  1.1112502259887107e-11  9.8236198948402497e-12  9.3831795909800165e-12  7.8232138565450867e-12  7.3489319921883113e-12  9.2037808712973508e-12  8.8569446749280453e-12  1.1413175746623401e-11  9.6041287043153236e-12  7.1480543311618547e-12  1.0158693756328487e-11  1.0849419782689059e-11  1.0152862418601277e-11  9.2036372034366710e-12  1.0327122600395213e-11  1.0282862580702600e-11  1.0641023902428694e-11  7.8353451011554874e-12  8.8577468872805089e-12  1.1656557653767819e-11  1.0156896957570161e-11  1.1291924174534049e-11  1.1352952402964147e-11  1.1277246837416267e-11  1.1457512852056800e-11  1.1459463060523260e-11  7.3562919578880229e-12  7.1229109305071719e-12  9.9821995720941660e-12  9.9260974400974566e-12  1.0113794318597969e-11  9.9887972795653056e-12  1.1666267973749857e-11  9.0088306460233503e-12  7.6637300071902421e-12  1.0767360939978066e-11  8.0016683428653475e-12  7.8406189371080129e-12  7.7456443417499124e-12  8.6970556002711613e-12  7.9386296604572652e-12  1.0650317791884513e-11  8.3665135998378109e-12  9.8709019663359457e-12  7.8648205945091783e-12  7.6863315552395980e-12  1.1766912355547997e-11  1.1759631140356732e-11  8.2614006419670147e-12  1.0154122604475787e-11  7.5901977578806636e-12  1.1719254678799056e-11  8.3446869852897124e-12  7.3281445131631453e-12  1.1228983615491254e-11  1.1201268029874419e-11  9.3294535009979542e-12  8.4029920720689928e-12  9.5772521273123497e-12  1.0667987583879706e-11  7.2207146053853417e-12  1.1646183036496062e-11  7.9386141430062350e-12  8.4415633265907496e-12  1.0820810620602406e-11  8.1449661836823902e-12  1.1447757868164571e-11  9.3961417779849743e-12  8.2059421826047440e-12  8.4821028768795797e-12  8.9983511024406394e-12  8.3279284854171176e-12  9.2441201856333031e-12  9.5333516169984704e-12  1.0406320680288473e-11  9.1088411379585990e-12  8.6539324723639530e-12  7.5847072660452064e-12  7.3430714141745150e-12  8.2889359566363143e-12  1.0372457777007299e-11  7.4488405423496766e-12  7.3522024282211979e-12  1.0477379466204019e-11  7.2138652802223559e-12  7.2321994044775823e-12  7.2372413041365965e-12  7.5328820283252282e-12  7.3232095527481153e-12  7.2506116626375120e-12  9.4989896504840310e-12  7.2556046258471106e-12  7.1380079151105035e-12  9.0556513213642989e-12  9.4380162359376861e-12  7.1285424716570473e-12  7.1342054471039994e-12  7.1356494177494128e-12  1.0810377079287944e-11  1.0524419568224559e-11  1.0207791556080434e-11  7.2244927817218587e-12  1.1281388545410589e-11  1.1029896314781438e-11  8.6498027679281265e-12  8.7026215464162667e-12  7.3313936648156469e-12  1.1703431278743191e-11  7.9819218757976120e-12  7.1342943713656467e-12  1.1445362372422939e-11  9.8066571873279490e-12  1.1704328126476268e-11  1.1604277764942152e-11  7.2183361773764700e-12  7.1304948511354518e-12  7.0666816085758322e-12  7.1037496996048780e-12  9.8654089615427996e-12  7.2297338660811710e-12  1.1462350183319794e-11  7.1450479238787544e-12  7.1570931150057614e-12  7.1320995505505574e-12  8.7976216181973934e-12  8.0721805673098185e-12  9.5502734662591896e-12  7.4433006512744280e-12  9.8443274824664453e-12  7.4944329755432110e-12  1.1358190117849839e-11  1.1327874985870772e-11  1.1461043772963067e-11  7.8528981118724457e-12  1.1562314707388946e-11  1.0988955544617211e-11  1.1418858910051390e-11  8.5535461027870968e-12  1.0353605765657168e-11  1.0669971706325689e-11  8.3600627943251838e-12  9.8716319551705807e-12  9.7042677077318972e-12  9.5403550425870722e-12  1.0212311367767033e-11  1.1301522077297505e-11  1.1468419042697931e-11  7.8092619947088250e-12  8.9462395598587321e-12  8.7606874620083296e-12  8.0527125493620299e-12  1.1201450142697823e-11  7.3745738898759975e-12  9.7576532623374485e-12  8.4842084269840005e-12  1.0537252913712946e-11  1.0921661860121082e-11  9.8515979221788046e-12  8.6254651111172343e-12  9.8969512292620623e-12  1.0745829711411960e-11  1.0600179148818306e-11  8.7386461237470572e-12  7.7008442523491051e-12  1.0990870861956947e-11  8.0952708339471419e-12  7.9305190009271348e-12  9.9143874532862325e-12  9.3418298402424207e-12  1.1028616622167848e-11  9.2164842825962197e-12  1.1315437018095313e-11  7.8459793701134843e-12  9.4103816051442236e-12  9.3064429265323413e-12  8.2572847049460154e-12  8.7237091817945307e-12  8.6396142550488704e-12  8.3625528227120202e-12  8.3962104377020034e-12  8.1852186819159066e-12  1.0047548208594812e-11  8.4741655943445709e-12  9.1486165872395693e-12  1.0219644828096212e-11  8.9303154022184835e-12  8.8195333612177004e-12  7.6307814790828165e-12  9.8150846428697864e-12  8.9907499219152805e-12  8.8807998397782357e-12  8.3934285487518245e-12  8.6306124445265813e-12  9.6296580273589354e-12  9.5561252645827884e-12  9.2936333686711076e-12  1.0545521852181624e-11  8.0623402591070771e-12  7.8977917675313610e-12  7.8640896753637047e-12  8.0194097018709940e-12  8.1535672606635940e-12  7.8926482813482939e-12  7.7756849102491247e-12  9.5899601025190967e-12  9.8767283526393079e-12  7.8663498837619735e-12  7.4020410433026017e-12  8.0253082015430841e-12  9.3226885621481596e-12  9.9904219693329821e-12  1.0460885656289151e-11  9.5202618013390785e-12  8.5084078426723447e-12  1.1057909170085331e-11  1.0151568203476074e-11  7.6917524898673946e-12  1.1145512106133076e-11  8.8005927494881587e-12  8.2058759862453216e-12  8.0751532361844179e-12  7.3783102070601206e-12  8.2152068397668928e-12  7.4763804991089382e-12  9.9698694429198585e-12  9.5714898241951116e-12  1.0023905093160157e-11  1.0283934285727144e-11  8.6537357826177868e-12  8.5592511145970718e-12  9.0400739369125189e-12  7.6600900303250321e-12  1.0448219750165163e-11  9.5775009804187246e-12  9.9812830508514643e-12  1.0133004516306346e-11  7.8487715295264728e-12  7.4028334794747513e-12  8.6310670248581755e-12  7.4050981846002713e-12  8.6034767441470075e-12  7.6814773392475044e-12  7.6348593149417197e-12  8.3005272117803286e-12  9.6181587352556413e-12  7.5734273716694442e-12  8.2970774156142031e-12  8.6434175096880465e-12  7.7833550204041377e-12  7.9984442688342466e-12  8.1703221220424192e-12  7.7226493857556959e-12  1.02878866360