<?xml version="1.0"?>
<VTKFile type="UnstructuredGrid"  version="0.1"  >
<UnstructuredGrid>
<Piece  NumberOfPoints="6486" NumberOfCells="12696">
<Points>
<DataArray  type="Float64"  NumberOfComponents="3"  format="ascii">0 2.5 0  0 0 0  2.5 0 0  2.5 2.5 0  1.25 0 0  2.5 1.25 0  1.25 2.5 0  0 1.25 0  1.25 1.25 0  0 0.625 0  0.625 0 0  0.625 2.5 0  0 1.875 0  2.5 0.625 0  1.875 0 0  2.5 1.875 0  1.875 2.5 0  1.770833333333333 0.7291666666666666 0  0.7291666666666666 1.770833333333333 0  0.9375 0.625 0  1.875 1.5625 0  0.642361111111111 1.163194444444444 0  1.341594827586207 1.883979885057471 0  0.46875 0.46875 0  2.03125 2.03125 0  0.3626104797979798 1.513178661616162 0  1.381740196078431 0.4564950980392157 0  0.9375 2.172619047619047 0  2.172619047619047 0.9375 0  2.096354166666667 0.4036458333333332 0  0.4036458333333333 2.096354166666667 0  1.684027777777778 1.163194444444444 0  0.3418803418803419 0.8693910256410255 0  1.642742622813391 2.162164207604464 0  1.275619849389031 0.8465650753054845 0  0.9136284722222221 1.434461805555556 0  1.732437511238546 0.3406962303960658 0  0.9714402568595876 1.029779313093998 0  1.52281746031746 1.485615079365079 0  2.1875 1.71875 0  1.06819722569879 0.2997236128493951 0  2.136114211309524 1.303478422619048 0  0.3125 0 0  0 0.3125 0  2.5 2.1875 0  2.1875 2.5 0  0.3200021620376328 1.192323085056694 0  0.6738456129277992 0.8304377375553881 0  1.757891808928991 1.861952730357003 0  1.5625 0 0  0.9375 0 0  0.3125 2.5 0  2.1875 0 0  2.5 0.9375 0  0 0.9375 0  0 1.5625 0  0.9375 2.5 0  2.5 0.3125 0  0 2.1875 0  1.5625 2.5 0  2.5 1.5625 0  0.7448220909826522 0.3003573636608841 0  1.027298850574712 1.871151477832512 0  1.331260495098891 2.197262878816185 0  1.207917681892289 1.582765010956622 0  0.4339993447432606 1.801186844743261 0  0.6337298768939392 1.443093039772727 0  2.049851190476191 0.6826636904761904 0  0.6584821428571428 2.219122023809524 0  1.89575676467455 0.9798457973793544 0  1.437570562095628 1.059380588255917 0  1.502090052505845 0.6987070896496241 0  0.2040860661083546 1.705323965099331 0  0.2083333333333333 0.46875 0  0.5070952039991439 0.2211150679997147 0  0.6916302856529919 0.5813591430410241 0  2.265625 1.953125 0  2.2265625 2.2265625 0  1.886424081252096 2.243391360417365 0  1.40625 0.202164758520858 0  0.2269345238095238 0.2269345238095238 0  1.152730869673694 0.5225850378741401 0  1.885631899587912 1.312095130148776 0  1.614808884009367 0.9049784971014416 0  1.890095442220658 0.5126535558463003 0  2.323168682795699 0.46875 0  2.268811725689575 0.2304742875213018 0  0.6002389442105756 1.967426444210576 0  0.1768313172043011 2.03125 0  0.2311882743104251 2.269525712478698 0  2.03125 0.176831317204301 0  2.280262553344767 0.6954945504579233 0  1.979219539285994 1.809922269642997 0  2.336309523809524 1.09375 0  1.09375 2.336309523809524 0  0.9314042474388009 1.662973812215543 0  0.1634067999087722 1.40625 0  2.337090640094896 1.40625 0  1.141616997467638 2.069311773587991 0  0.46875 2.338939559681489 0  1.542440307908715 1.734944797244472 0  1.556713687786879 1.956977865354753 0  0.8264238995344066 1.975424467820646 0  1.466326331454725 1.275271369760862 0  1.655675324257095 0.5444159974393489 0  0.3385416666666666 0.6479255698005697 0  0 0.78125 0  0.5236073939200119 0.984090461540625 0  2.091665741047893 1.519793517904215 0  1.71875 2.5 0  0.5356538886262603 1.623137930505009 0  0 1.09375 0  0.1932884281517095 1.015625 0  0.8569313582417669 1.2198915584249 0  0.8876981284879677 0.8329884081524883 0  1.115618488474214 0.7219586973356271 0  1.186950366204949 1.043465130075318 0  2.057459118787237 1.110823087309335 0  1.830651283878689 2.049810069572418 0  1.689107969301489 1.367247437031697 0  0.4921048768039656 1.298643370653124 0  0.8213975694444444 2.336309523809524 0  2.03125 2.5 0  1.049729400480002 1.283723261332814 0  1.308101375801673 0.6489479469700392 0  2.5 2.34375 0  0.4968777175037714 0.7562964879736076 0  1.40625 2.5 0  1.501347663534097 2.307027627307738 0  1.602813712048603 0.1926218191360736 0  0.8393082906308107 0.463778306132633 0  1.682663349152719 1.598471865581041 0  0.7774174680851571 1.560004941327907 0  1.554204170364662 0.3898593897892066 0  1.842184459051087 0.186443880058197 0  1.358107417651776 1.696381759610015 0  1.18859291992392 1.77598670078022 0  0.1875331222687418 0.7609599743339348 0  1.339536743965101 1.422080365801479 0  0.7788179348750389 0.9955343414928611 0  0.9062978492805438 0.1919636509126373 0  1.256007360640958 0.3160320559396114 0  1.09375 0 0  1.174986727221844 0.1594990293443933 0  2.34375 1.796875 0  2.318026474511116 1.589177949022232 0  2.34375 2.5 0  1.672742954892153 2.332882724550692 0  0.2683637361947215 1.874801596909639 0  2.174770749820102 0.5581009131310781 0  1.443279522965991 0.8870068372898454 0  0.3385416666666667 0.3571428571428572 0  0.78125 0 0  2.060421048269335 2.314363248763811 0  1.088078737088509 0.8967352118723447 0  1.087825368444708 1.454931510884769 0  2.018308232129541 0.8548495425854904 0  1.943987311736842 0.3246298523011434 0  1.71875 0 0  1.85337849796276 1.144833312386208 0  2.3486328125 2.1044921875 0  1.407588788651747 2.042968789119587 0  2.336309523809524 0.865366648092144 0  2.34375 0 0  2.5 0.15625 0  0.15625 2.5 0  0 2.34375 0  0.1638044648294291 1.242263417405867 0  0.356216654757926 1.032569427322806 0  0.3188217956111817 1.355736727000647 0  0.5924956460852111 0.36112522004736 0  0.6594216488965849 0.1603472116132387 0  1.841804599497131 1.72214349266521 0  0.15625 0 0  0 0.15625 0  2.115898634821499 1.894570904464496 0  0.7821877980253907 0.7129993435924866 0  1.003820447087786 0.4516053462784233 0  0.477562948779147 1.138333049293613 0  0.719493678605015 1.305655360135975 0  0.9772457618587566 2.020350128938537 0  0.8764738248887107 1.826219722709673 0  1.254787875123819 2.339010653832026 0  2.343597354852534 1.249982759769001 0  0.78125 2.5 0  0.46875 2.5 0  2.5 1.40625 0  1.09375 2.5 0  2.5 0.78125 0  2.5 1.09375 0  2.03125 0 0  2.5 0.46875 0  1.40625 0 0  0.46875 0 0  0 0.46875 0  0 1.40625 0  0 1.71875 0  0 2.03125 0  2.5 1.71875 0  2.5 2.03125 0  2.005424054645407 1.653223486966518 0  0.1538730573856537 1.559850281736677 0  2.33984375 2.33984375 0  1.166539506212474 1.922878979538754 0  0.3914885633949916 1.65887232812171 0  0.5795503163042564 1.766243562569382 0  0.399533125920212 1.946786875081388 0  0.7866324979014098 2.127719094551316 0  0.3654683023546834 0.1495701132219454 0  0.1527388747131078 0.6116379440619215 0  2.013737577140188 1.391056634712135 0  1.17635437372994 2.213329084238133 0  1.737118141866284 1.010577140843115 0  2.200707118087222 1.164723314085963 0  1.697018908736685 1.993548551451517 0  0.5387621649009668 0.6070503962352419 0  2.032805785855952 0.5330427622570983 0  1.082699501358059 1.667818725183932 0  1.503819781540653 0.5468420196858188 0  2.015409142866072 2.175941657590429 0  1.752057611265444 0.869642097111018 0  0.612251684107783 2.356045720700959 0  1.902817102342857 0.6607642211999982 0  2.159616561739693 0.7867739969338844 0  0.5120038350106624 2.197302352398502 0  1.888200216011548 1.919501662489862 0  1.495909909726654 2.16028358757309 0  0.489139876703609 1.443203008943564 0  0.8819175670410521 0.3301172743913011 0  1.882591144370812 0.8155965192707721 0  1.133979796994841 1.172526771862882 0  2.206217447916667 2.084147135416667 0  2.20361328125 2.36279296875 0  1.395746985657004 1.556054166359645 0  1.704383111516207 1.734750450338683 0  0.9575737847222222 2.36274223823052 0  1.035150984253136 0.1302833343179028 0  1.383966125325753 0.7651479963479179 0  1.64003252158672 0.6824316405528895 0  2.22550785055421 1.487078576356817 0  1.760964431499756 1.48495222505201 0  1.276460980673788 2.004207003584658 0  0.1341477688427096 1.828777507920502 0  1.542261434180652 1.155296658359034 0  1.334627911613854 0.9696897472490321 0  1.30794231473696 1.119420615785191 0  0.7028260459857245 0.4438906910721139 0  1.625757433094055 1.84268057552138 0  0.9818707849053143 1.165603626132254 0  2.0086489901463 1.243134585689553 0  1.934584460420609 2.374094051915812 0  1.798434376789567 2.38671361912528 0  1.206314791201715 1.382064292497919 0  0.6333752893366955 0.7023738550008095 0  0.7796219811205605 1.42573253164258 0  1.564399711917382 1.026040828857629 0  0.3385416666666666 0.4889012896825397 0  0.1041666666666667 0.390625 0  0.989112246382566 1.543537365516289 0  2.025724425454636 0.9846960595520872 0  0.6602885475034063 2.086117390485779 0  1.607130551925032 1.267198646640915 0  0.1317864544877056 0.8896173683400176 0  1.755387840017567 2.230364320056445 0  1.301540702984401 0.1216289692748247 0  1.433170657577442 0.3331052752740999 0  1.500459610550388 0.113513924782439 0  0.6494291520606965 1.029586599619295 0  1.010146149868299 0.794897284196169 0  0.3700844198238017 2.235390157870766 0  0.3360891767780704 2.36656279435396 0  1.876856241037701 1.437150669863757 0  1.778674102957329 1.245979347269706 0  0.5472829890977179 0.1005517127039925 0  0.4669074189005698 0.3416784232954367 0  1.472765289289269 1.850899166481903 0  1.555853593327178 1.608452097912802 0  0.6708955559113426 1.646561631116984 0  0.8164699620322933 0.5924479455478063 0  0.3167738989468366 1.758696809749795 0  0.2788007305565096 1.605499483471246 0  0.7821720982350511 0.181524936294752 0  1.376812251214195 2.313340247908297 0  1.785652202614777 0.5962261755537186 0  1.761467296310972 0.4679567244718574 0  2.2265625 1.8359375 0  2.3828125 1.9140625 0  0.5279531607054191 2.071552361614785 0  2.397573269551114 0.234375 0  2.383578172599618 0.3589298466020009 0  0.1024267304488855 2.265625 0  0.1164218274003825 2.141070153397999 0  0.2696857594953064 2.135405441512016 0  2.164961300137334 0.1375322943529536 0  2.137757548369486 0.2724194778647587 0  2.238873711826398 0.3626419179496562 0  0.1001414910226386 0.234375 0  0.2176339285714286 0.3478422619047619 0  0.2503620791333544 0.1061694061057066 0  2.336445461915368 0.1250451055247424 0  0.2154004640409726 2.3918124
[...]
<PointData  Scalars="f_16-2"> 
<DataArray  type="Float64"  Name="f_16-2"  format="ascii">-3.0787493268121886e-17  -2.5594685947881386e-21  -1.0684118063124042e-21  -2.2918944612125447e-17  -1.9476932978083317e-20  -9.6571685143712327e-19  -4.8662942316491113e-17  -3.5017473752087258e-16  -1.1923904009465473e-15  -1.3656536857077695e-16  -1.9071928212479504e-20  -3.4661271553593062e-17  -3.1059559624275220e-16  -8.9059827752302194e-22  -9.7160053381592728e-21  -3.1249258497903351e-17  -1.2748009386204594e-16  -7.0061672035249835e-19  -4.0366309381360331e-16  -1.2461322122338758e-16  -4.3343402941694698e-16  -8.0150852179204758e-16  -9.8653142963105806e-16  -5.2811337728810683e-16  -4.5585775599078049e-16  -4.0650495669824102e-16  -2.2728622124048166e-19  -1.6497256000684917e-16  -4.3867182582370143e-19  -4.8953806984400280e-21  -1.8651535147022250e-16  -1.3047939569321289e-16  -4.2174947080183855e-16  -5.6552749272276387e-16  -1.1270650057876491e-16  -1.0630526942803339e-15  -1.3152426131686936e-20  -1.1923490708174040e-15  -1.1404577303232332e-15  -1.4412647084375562e-16  -1.8388768923456255e-19  -2.3279065001344565e-17  -1.1716125653410936e-20  -1.3628908986364737e-17  -4.3299561714245883e-17  -7.3909245117942843e-17  -3.5528337502775618e-16  -1.2273603444595938e-15  -1.0163697908671528e-15  -1.5793158002930629e-20  -2.0521668972527396e-20  -2.9782588264844691e-17  -3.7697072338988534e-21  -2.5916390044166346e-20  -2.5934010115956831e-16  -4.0414693311663791e-16  -3.4373203822836983e-17  -8.4445650654524833e-22  -1.3053751563576706e-16  -9.1089003763672240e-17  -9.5457060222721905e-18  -2.8051170538261443e-18  -4.9643212213772537e-16  -2.7728463444984012e-16  -1.4419547059037467e-15  -3.6041900986524661e-16  -5.0579434991397283e-16  -3.6897560263211302e-20  -1.2190517607328818e-16  -6.5577162287778963e-18  -2.2925767631223716e-16  -4.4138310670245790e-18  -3.8909126815845795e-16  -6.2222373696304881e-16  -4.2928780179741900e-18  -3.8071083045972706e-16  -1.4606293358591130e-16  -1.5729048427934593e-16  -3.7801623929188726e-16  -1.8785411859123440e-20  -5.1580742478861726e-17  -4.8323996946249530e-18  -1.1550303425599540e-16  -2.2402274403688888e-17  -1.5165616817124035e-20  -1.7850529981307914e-21  -2.4823116341971455e-21  -2.7493831946073690e-16  -2.2028560607272745e-16  -9.2480157184879820e-17  -6.2035922340423111e-21  -6.9343012596219950e-21  -5.1223316139205932e-16  -7.2678510458251889e-19  -8.9321706871539221e-17  -6.8577395134902707e-16  -3.8825686953584341e-16  -1.1406876000106213e-17  -3.2216121053106873e-16  -7.0744204093074152e-17  -1.3873591654804576e-15  -1.0208536637912067e-15  -2.9269439756158950e-16  -6.6894995637567980e-16  -1.0321307828307902e-19  -7.7820747128744342e-16  -2.0547239798313991e-16  -7.5785276193118166e-16  -1.1115313626369782e-16  -1.2172917690505413e-16  -4.1574760263004770e-16  -3.0717290605563477e-16  -2.9086234488982032e-16  -1.2972386322414453e-15  -7.5456426390575013e-16  -9.4531975272699989e-17  -6.9590497639058608e-16  -7.9735461446352903e-18  -7.1108537973184481e-16  -4.1883231748167680e-16  -4.3676655725021723e-16  -7.5302392719903087e-17  -1.1195461250350886e-16  -1.5119920444826281e-15  -9.1166915690155722e-18  -3.4854440111538760e-17  -1.0818818320643703e-15  -6.4376599527790284e-17  -2.2833466026862474e-16  -1.5202011444203421e-20  -3.1671319838208364e-17  -9.5172943592488743e-16  -5.7353784200273762e-16  -2.8400808881941192e-20  -9.8692678002759076e-21  -1.4453953110881041e-15  -9.6130703850037717e-16  -2.4656800487714019e-16  -1.4018808743570009e-15  -1.3355264584224711e-15  -6.0290446626947606e-20  -5.6269909574620242e-20  -2.0219058097478791e-20  -2.1874132938247348e-20  -6.7319245137726871e-17  -3.7528469983156261e-17  -4.3311431330186580e-17  -2.6822927189384757e-16  -3.2272223072336217e-16  -4.2961635161252845e-21  -5.6065304955501527e-17  -3.8177740777157867e-16  -2.0568504001083994e-20  -2.1116158893269456e-16  -4.6862377663999727e-16  -1.4342996392089951e-15  -5.2964179656137246e-19  -7.7996465750985042e-21  -1.3019076701123420e-20  -4.0704776173149445e-17  -9.9163220497024986e-17  -6.4906033415110390e-16  -3.4763341880242248e-20  -2.1041765449610124e-21  -9.8633689990911568e-22  -3.0491809905151560e-17  -6.0495109188019334e-17  -3.5191300363165606e-16  -3.6463330445858170e-16  -3.8402296229577588e-16  -4.9581043264064135e-17  -1.4235566860134252e-19  -7.3951287272482066e-16  -1.6287889603861053e-21  -1.8297389431075743e-19  -3.0681981481141738e-16  -6.0240501611437585e-16  -6.4391617438662823e-18  -4.7461343934682190e-16  -7.8531098097576183e-16  -2.9524419129510616e-16  -4.2864426753559150e-16  -1.1601352172203984e-16  -3.0321108510035886e-18  -3.3769722150848079e-17  -3.0722635624707286e-17  -3.3847284495929901e-18  -3.8466167659013958e-17  -3.1765134019630355e-21  -1.7556627048802386e-19  -6.5472141160876654e-21  -7.5508672457005246e-22  -1.7897472059805384e-20  -1.6731169220037816e-20  -7.6106754275623381e-17  -3.8648160372535705e-16  -3.8386035916220420e-16  -2.2562620935972284e-16  -1.9587704508411434e-17  -4.0550810528074019e-17  -3.0795573883101878e-16  -4.0456072305267608e-16  -7.2469663395087592e-17  -5.8551467959435408e-16  -4.0188104448459383e-16  -3.7845750748801330e-16  -2.8376323830359570e-16  -1.8165542635463531e-16  -1.2612277172928354e-18  -2.2206222171457966e-16  -9.0106692009042816e-17  -1.8979975219150622e-16  -2.6927407032079995e-17  -4.0877971758111564e-18  -9.4591384683284171e-16  -9.1305717726443076e-16  -8.0744843775534784e-21  -9.8879416381149119e-16  -3.7303106595942211e-19  -3.6048289229702738e-16  -5.0270654436687400e-18  -6.5227868844115263e-17  -8.0515753646651310e-20  -5.8994599239552606e-20  -1.3303101945698994e-16  -7.4085745092772403e-16  -4.6810455333283292e-16  -4.2100654036012397e-16  -1.8855496024599405e-18  -8.5831543377777721e-19  -1.2532861711231924e-15  -2.0904675360729761e-16  -1.1062868105887596e-16  -1.4988373358644866e-15  -1.0959439787152624e-15  -6.7605357562359874e-17  -2.2838950529536945e-20  -2.3512661811752516e-17  -1.0197080099232635e-18  -4.1823143484540197e-17  -5.2971796868428890e-16  -5.7098392304710210e-16  -3.4553017787224239e-16  -2.5218000253848762e-16  -2.0630954094231935e-16  -6.1028816099197567e-16  -8.0151661821280855e-17  -1.2327973051028709e-15  -1.4465017748685283e-15  -3.6285250630630888e-17  -2.1236095634239286e-16  -2.1295636225334368e-16  -1.5304938794686746e-15  -1.0059415053957943e-15  -7.3645399815439644e-16  -8.9377628907189551e-17  -8.9396489272865936e-16  -2.2854142812375547e-16  -1.0237381573899104e-15  -2.5518962824828529e-18  -1.9805103949188473e-16  -3.6355553539788695e-16  -2.4584682014576515e-16  -4.4451628354121312e-16  -1.9309286626790934e-20  -2.9594420897575909e-20  -1.6778712596830185e-20  -1.0714510543462373e-15  -3.5276833909220536e-16  -1.1219505564177395e-16  -5.7809608849849125e-17  -2.4212972337654068e-16  -1.3711344669738076e-16  -5.7201097444554341e-20  -1.0626552165360148e-16  -1.2408068080235184e-15  -1.2866298721360604e-15  -4.4145406429058637e-16  -2.0990662165524360e-16  -3.7500906235576095e-16  -4.0471421715023219e-16  -1.1618119930783226e-19  -1.6926862667149867e-16  -8.0025369623578210e-20  -1.9696674158273716e-20  -1.5908052085003876e-16  -6.6652086519852210e-17  -2.0695356993186772e-16  -1.3242258068025607e-21  -1.3834438099896961e-21  -9.5010145379556814e-17  -1.6135136540620188e-16  -1.6313925624886597e-16  -3.9449813035629080e-21  -4.2726673773162162e-21  -2.8502309306727120e-21  -2.9050416353828915e-17  -6.0726169575279302e-16  -1.2236286982667307e-19  -1.9229639949320286e-21  -4.9935699456426409e-17  -1.5144538037516028e-16  -7.1727431996555733e-20  -1.2838916262213768e-20  -3.9059170857808176e-17  -5.0893859224097383e-19  -1.8875480740453298e-18  -2.5388041045586405e-16  -7.8725719591048029e-16  -1.2208432708712915e-15  -2.7682649169534885e-16  -8.2771495657312453e-21  -1.6622503250073915e-21  -6.0287563287685830e-21  -7.3211479889641776e-17  -2.8845206703586911e-16  -3.2453511204808716e-16  -3.1591055636077662e-16  -1.3557743335049907e-17  -9.5899034779809376e-17  -7.5834734983990026e-16  -1.0770739330551519e-20  -7.8674907022621936e-16  -5.0161498947584341e-16  -5.9439200629197156e-16  -1.2734177447641184e-20  -2.2386468025307001e-20  -1.1073073726672493e-18  -3.2083476361984669e-16  -3.2689292299020284e-16  -1.1398017665272818e-19  -1.7520522750784218e-16  -5.8194252453175621e-16  -2.8311931506269642e-16  -5.2574737447692565e-16  -7.5227287043805399e-21  -6.3460471381333373e-17  -3.9835932811656560e-16  -3.6991469372037090e-16  -9.9247454011283520e-18  -1.1915105716970863e-17  -1.3908644163556934e-15  -1.4437207299150649e-20  -4.2266548367732337e-18  -5.2264818362762091e-16  -1.1205592185803859e-20  -2.3107580487038661e-17  -7.8665198286959042e-16  -5.0944976899001336e-16  -5.2440666608673858e-17  -1.3296667013899654e-15  -4.5080034766786377e-16  -9.9339267811161221e-16  -6.3610336882254592e-16  -2.5555514716698974e-20  -3.9982940573644212e-16  -3.3148487619560589e-16  -3.1563970648649850e-18  -7.4791857107220813e-19  -8.0961385154177130e-17  -4.7281907208674589e-17  -3.8320196965475457e-17  -2.3764971281475292e-16  -4.8741649975226547e-17  -1.3194578229324968e-18  -1.2078574822791079e-16  -1.7841390578579186e-20  -7.0949087252401219e-16  -2.3014283339597265e-16  -3.6085162646895524e-16  -1.0948549157909904e-15  -3.9831133696336560e-16  -3.6094252034246467e-17  -2.6251532923751922e-16  -1.4772967733344894e-15  -1.1883205347292289e-15  -3.4000761715421472e-16  -1.1199611952029502e-16  -1.1580706672984137e-15  -3.9745755910808798e-16  -1.0037734033609284e-15  -8.1054623086412900e-16  -1.9570034578096795e-19  -1.0179972052402473e-15  -7.4752710218511204e-16  -1.2477277611507316e-15  -4.0471421622297669e-16  -2.2309577711465726e-16  -2.1421839619831567e-19  -7.8502247763673812e-16  -3.8431984496000212e-19  -3.9950235925377499e-18  -1.2283544699906509e-16  -2.8289949478724068e-16  -1.1699703624958647e-15  -2.5476864381903030e-16  -1.1378674155323215e-15  -1.5234729486871473e-20  -6.7355108579336086e-17  -1.3933954585529746e-15  -1.5574959044037711e-16  -2.7708440062861432e-16  -1.0494562078774999e-17  -2.0473131394629764e-18  -1.5538702199344724e-15  -1.3408707938685294e-17  -1.7728631720509738e-16  -4.5037995659886648e-16  -1.1366407380349105e-15  -1.4308575574690854e-21  -1.8650986111090657e-17  -5.3158948598521951e-17  -1.7301828880944297e-16  -3.3872645726412140e-21  -3.9341030233371819e-16  -4.1451737398197540e-16  -2.5083168629139046e-16  -1.0692456014127779e-15  -7.0403868042815420e-16  -3.2168359418358723e-17  -1.4401797397949458e-15  -9.4002527532116507e-16  -7.4901712316589378e-16  -3.7902276185815160e-16  -4.7572069174003659e-16  -3.9411500344155006e-16  -3.3962401214386924e-16  -8.3983136161739031e-16  -8.8967598473212870e-16  -6.2899983533094578e-16  -2.0230404048549563e-20  -1.5333360171430427e-15  -4.8310025631721438e-17  -8.7792154209787664e-17  -5.9714704913656510e-21  -2.3102665709939456e-20  -2.5655282332346383e-16  -1.8140382733988733e-20  -7.0764022528747980e-16  -2.7240485712960114e-20  -3.0424227552958901e-21  -3.8062725402139200e-16  -8.3239722707558424e-16  -1.0692020178920044e-20  -6.6374848078314666e-17  -1.2932227247555074e-15  -1.2302005748868616e-15  -5.8730953136942253e-18  -2.5938731958157018e-19  -2.8679330258180718e-21  -1.1908909553618506e-15  -3.0869239094220650e-16  -2.8998438284306208e-16  -9.2441722957060711e-17  -8.3247791567780249e-20  -3.4833976866780047e-17  -1.5457384001985271e-16  -8.2716170292607689e-16  -1.5355154706507554e-15  -2.1197534935450761e-16  -1.3941072767689247e-15  -5.1566096055910018e-19  -3.6356690730512047e-16  -4.9575111839623922e-21  -5.5569630103096493e-21  -4.0216555149926279e-16  -1.0408848373674348e-16  -5.2437165117756519e-16  -8.2990068793903524e-20  -3.6721476283553152e-16  -7.8458641330743886e-21  -1.4806759007775673e-17  -6.3608560853400611e-17  -4.8513090863430610e-20  -7.3059704806136207e-20  -2.5236355282784420e-20  -1.1663864105757603e-15  -8.5832544463923332e-16  -1.5078017964624626e-15  -3.2036477641230443e-19  -2.9973251318690011e-17  -2.8751600021088438e-16  -1.7674664938160701e-16  -9.1869854440305225e-17  -5.6207826720641188e-16  -1.0560617432063482e-16  -1.2868416090423950e-16  -3.6550857854455035e-20  -9.4649765828360288e-16  -1.6690406866027207e-16  -5.2393095888231558e-16  -7.1116586695992678e-20  -1.8998227957646141e-16  -5.4619389138872958e-17  -9.2931245194119968e-21  -2.1997252904159528e-17  -5.2274282104619940e-17  -5.1396959405394724e-16  -3.0052706779205712e-16  -3.2011919846624980e-16  -2.2380311529958526e-20  -1.2213063671718259e-16  -9.0054235816694049e-16  -1.6187468825494969e-20  -7.4979340954327196e-22  -1.1443859379898825e-21  -5.4834312158177722e-17  -2.2660432351547497e-20  -3.4249303885084035e-16  -3.6062206045175550e-16  -8.7117575265668031e-18  -1.6605322966723923e-16  -1.2433618298935337e-18  -4.3220502358134029e-16  -2.9042889189412796e-17  -5.0849486997249155e-16  -1.9650930879005602e-17  -3.5260059203392090e-16  -2.6063177380502348e-16  -4.4070296648657579e-17  -4.8606173134728961e-17  -2.0449989559552476e-20  -5.3198686071817087e-19  -8.2582045707969076e-16  -1.7387289794294692e-20  -1.3288314263500746e-16  -3.5192915441277148e-16  -5.2586566965742636e-17  -1.9223032584595379e-17  -5.0038549674875736e-16  -2.2603352050037665e-16  -2.4102224367974342e-16  -9.3973767175137068e-21  -1.9813043502665572e-20  -1.4540461822131515e-21  -6.9796316131380272e-19  -1.1812717071352078e-19  -1.9992516473355278e-18  -4.3807014800457645e-17  -1.0494723030898656e-16  -3.4216910497206296e-17  -1.0449322458117447e-21  -2.2135341175058013e-16  -4.8713565332946316e-21  -3.3452237541036577e-16  -3.8449009237468998e-16  -4.0356167288586082e-17  -3.9275610213929873e-16  -1.7796155489828235e-16  -2.2282187868225346e-16  -6.4130620612385947e-17  -1.4487235553361687e-16  -9.5880765698415983e-17  -1.2623407242123861e-16  -1.9892567271973363e-21  -1.3324655815996456e-16  -5.2454492473553294e-16  -5.8377407069648495e-18  -4.7474557394188773e-16  -9.7292655430573608e-17  -2.8036647721107085e-21  -2.2798284442353318e-16  -7.6942894616106111e-16  -4.1248147858039538e-16  -6.4123361172140475e-16  -1.3182067490574940e-21  -6.8806638389116668e-16  -2.3516775000000251e-16  -1.7892600190101992e-21  -7.0297413869708571e-17  -1.6859530431366766e-20  -2.3124554892177916e-19  -4.7573512593254699e-16  -5.1468161419591955e-17  -1.3766887577073092e-15  -3.3153133627908623e-16  -6.4065788688512821e-17  -2.9322823187548264e-16  -4.3133897387714703e-16  -1.3153556044986727e-15  -5.3771124629896767e-18  -2.5850358150099846e-20  -4.3267887831046353e-16  -1.0983970472702017e-15  -3.8729438627810165e-19  -3.7790330407644232e-18  -3.6160600628507530e-17  -1.3407041615323040e-15  -3.0753247331916952e-16  -5.7919722892742540e-16  -1.2704753319426940e-15  -3.7605797661359793e-16  -4.5204174332919973e-16  -3.0303669191063813e-18  -2.2112694045906824e-17  -2.9729459943443361e-18  -1.8945528814565620e-17  -3.8030436467422637e-16  -1.9974573187456975e-17  -2.9567197406812430e-20  -1.2031176183425872e-18  -2.1619633380562819e-16  -2.0627570803856256e-17  -2.9945252703055461e-19  -6.5284564337363181e-20  -1.5425293057366592e-15  -1.2390770841382946e-15  -3.2555979080458295e-16  -3.9844645574947899e-16  -3.9062043613450780e-16  -9.6761490885010336e-16  -1.9649924991412330e-18  -2.0416177871754167e-20  -2.0807483404410745e-16  -2.7097077046669984e-21  -1.4295165764459022e-16  -7.7554245026267947e-16  -2.6353080151237451e-16  -2.6731007159741315e-16  -3.6725653305856431e-16  -1.5177659870558671e-17  -1.7771365937094243e-16  -9.9517170706250915e-17  -2.4556775058525872e-21  -3.8429888313825403e-21  -3.7674097325208688e-16  -1.8770966304411188e-20  -1.0188353605609575e-16  -6.9605344438902946e-18  -1.6966451287071829e-16  -1.0096176148772251e-21  -6.2506663110348036e-16  -9.6519932115461953e-16  -1.5762340851858530e-17  -1.9888281933908918e-16  -6.4250130417675250e-16  -7.8327668783058609e-19  -1.2582084532492852e-16  -4.9070290046524672e-20  -3.3221333644527471e-21  -5.9846289758620565e-21  -4.4409092301996807e-20  -3.9341224172131598e-18  -9.1263822245708409e-16  -3.9345386465101987e-16  -1.6767543330797417e-16  -2.3443226823490512e-16  -4.5369635766455108e-16  -5.0844797171957131e-16  -1.2810438935302288e-20  -1.1030447596795951e-15  -1.4740872974266546e-15  -1.2340109279504500e-15  -1.7416596224894106e-16  -6.0678966028722130e-18  -1.6235247312250360e-18  -1.7115356715821645e-16  -3.5076065263439294e-16  -9.3810075553478519e-17  -1.4816525765970386e-17  -1.9904625300021879e-20  -5.6062463107123666e-17  -3.4314165239239953e-17  -9.4864383257648491e-17  -4.2193218658988847e-17  -3.1299325957556619e-17  -5.4674181863843955e-17  -3.9963325079921752e-16  -3.4563107573511805e-17  -1.4570617164472554e-17  -1.1173657113400364e-20  -1.4528302218314739e-20  -4.2371704170215785e-19  -1.7786927875987344e-18  -5.9864119646117702e-18  -2.8410052611199004e-16  -3.3011461395039903e-16  -3.6875865651319047e-16  -4.2937211963685466e-17  -1.6772675050371896e-16  -2.0554091235182494e-20  -8.1276405690782024e-21  -2.7386302888489445e-16  -2.9918447036962164e-17  -5.9243582243126682e-21  -8.8605698435862100e-17  -9.0095810815255413e-22  -1.7757306109911319e-20  -1.7047442314313965e-20  -2.0287565422107869e-18  -4.4369447818361447e-17  -1.2865021336460042e-16  -3.9477028641780580e-17  -2.8581728416749128e-17  -3.0104430371638075e-17  -3.9971164452303640e-16  -7.5547661746478428e-17  -1.0734763253475794e-16  -2.5434410908070356e-17  -4.3558128908585112e-17  -7.9202529026926399e-22  -2.6882797347795698e-19  -2.3258859253555485e-16  -9.0893385175236108e-16  -4.6355201614442501e-17  -1.6284616864464911e-18  -7.2613809055943126e-17  -5.1324124128040941e-16  -1.1242110763961282e-15  -7.7109029648665671e-16  -1.1206702104763885e-16  -2.6633529601906309e-20  -1.2450531442864599e-15  -1.3426098179413521e-16  -2.3533987231858193e-16  -1.0267583510683242e-15  -1.2243917808779875e-17  -2.2577145178500808e-16  -3.9906026111350746e-16  -4.0421745818973827e-16  -4.0276761255643922e-16  -3.7291101835955072e-16  -2.2050216750122738e-16  -3.5872845350256598e-16  -1.6949036407717120e-18  -1.2080021272040154e-15  -3.8156349759266507e-16  -1.0401150654715206e-17  -1.1995576637528889e-15  -6.3880565322954073e-18  -4.0451233541939811e-16  -3.0311793699378427e-16  -1.3809314041048701e-15  -3.8652337316696292e-16  -1.4016904226006457e-15  -2.9131576220318782e-16  -2.6888576915138241e-19  -1.2345451986435091e-15  -1.4239592218819195e-15  -8.7879163224583161e-21  -4.4277862227002454e-19  -9.4884026855294570e-16  -1.7711886699905854e-19  -1.8761765882836902e-20  -8.1448181743195014e-16  -6.3614546236060354e-17  -2.5278096609807013e-16  -2.4104544606767588e-16  -2.2972062665752037e-16  -7.0567080194236415e-17  -4.0960416851142266e-16  -4.0446892707436876e-16  -5.8841128462389103e-16  -1.3173011102204008e-16  -7.2270921228985210e-17  -9.1319324239934227e-17  -4.5226406382594592e-17  -1.6262511081082371e-16  -3.8663922768712338e-16  -4.1227517827287952e-16  -3.6916200607426038e-16  -4.7078644694149706e-17  -3.2679269764284998e-16  -3.0508413748873636e-16  -1.5569843933576283e-16  -1.1902054256481179e-16  -1.6758512681162041e-19  -3.8913827918419933e-20  -2.0558854966250213e-16  -4.3252395628709387e-16  -4.0714655677643474e-16  -4.0905064572326396e-16  -3.8682951197331278e-16  -6.2546263237866149e-16  -3.7088409002553222e-21  -1.3513490818249018e-16  -1.4823403997555161e-16  -1.2388303450866770e-16  -1.4224360345109615e-16  -1.0426187015573210e-16  -2.7378882736571558e-16  -8.5698822511050381e-16  -1.9408184805980349e-20  -5.4113827947372714e-17  -1.2818746783488557e-20  -2.3873360692546803e-17  -7.7306535339709608e-16  -5.9568464862444638e-16  -3.4597030571601273e-16  -5.1151527692252339e-16  -6.8328180670600777e-21  -6.7816803446516531e-16  -1.9642204997991582e-20  -2.8477493524173478e-16  -8.3929472685972826e-16  -8.8306879126319822e-21  -4.05600352