<?xml version="1.0"?>
<VTKFile type="UnstructuredGrid"  version="0.1"  >
<UnstructuredGrid>
<Piece  NumberOfPoints="6486" NumberOfCells="12696">
<Points>
<DataArray  type="Float64"  NumberOfComponents="3"  format="ascii">0 2.5 0  0 0 0  2.5 0 0  2.5 2.5 0  1.25 0 0  2.5 1.25 0  1.25 2.5 0  0 1.25 0  1.25 1.25 0  0 0.625 0  0.625 0 0  0.625 2.5 0  0 1.875 0  2.5 0.625 0  1.875 0 0  2.5 1.875 0  1.875 2.5 0  1.770833333333333 0.7291666666666666 0  0.7291666666666666 1.770833333333333 0  0.9375 0.625 0  1.875 1.5625 0  0.642361111111111 1.163194444444444 0  1.341594827586207 1.883979885057471 0  0.46875 0.46875 0  2.03125 2.03125 0  0.3626104797979798 1.513178661616162 0  1.381740196078431 0.4564950980392157 0  0.9375 2.172619047619047 0  2.172619047619047 0.9375 0  2.096354166666667 0.4036458333333332 0  0.4036458333333333 2.096354166666667 0  1.684027777777778 1.163194444444444 0  0.3418803418803419 0.8693910256410255 0  1.642742622813391 2.162164207604464 0  1.275619849389031 0.8465650753054845 0  0.9136284722222221 1.434461805555556 0  1.732437511238546 0.3406962303960658 0  0.9714402568595876 1.029779313093998 0  1.52281746031746 1.485615079365079 0  2.1875 1.71875 0  1.06819722569879 0.2997236128493951 0  2.136114211309524 1.303478422619048 0  0.3125 0 0  0 0.3125 0  2.5 2.1875 0  2.1875 2.5 0  0.3200021620376328 1.192323085056694 0  0.6738456129277992 0.8304377375553881 0  1.757891808928991 1.861952730357003 0  1.5625 0 0  0.9375 0 0  0.3125 2.5 0  2.1875 0 0  2.5 0.9375 0  0 0.9375 0  0 1.5625 0  0.9375 2.5 0  2.5 0.3125 0  0 2.1875 0  1.5625 2.5 0  2.5 1.5625 0  0.7448220909826522 0.3003573636608841 0  1.027298850574712 1.871151477832512 0  1.331260495098891 2.197262878816185 0  1.207917681892289 1.582765010956622 0  0.4339993447432606 1.801186844743261 0  0.6337298768939392 1.443093039772727 0  2.049851190476191 0.6826636904761904 0  0.6584821428571428 2.219122023809524 0  1.89575676467455 0.9798457973793544 0  1.437570562095628 1.059380588255917 0  1.502090052505845 0.6987070896496241 0  0.2040860661083546 1.705323965099331 0  0.2083333333333333 0.46875 0  0.5070952039991439 0.2211150679997147 0  0.6916302856529919 0.5813591430410241 0  2.265625 1.953125 0  2.2265625 2.2265625 0  1.886424081252096 2.243391360417365 0  1.40625 0.202164758520858 0  0.2269345238095238 0.2269345238095238 0  1.152730869673694 0.5225850378741401 0  1.885631899587912 1.312095130148776 0  1.614808884009367 0.9049784971014416 0  1.890095442220658 0.5126535558463003 0  2.323168682795699 0.46875 0  2.268811725689575 0.2304742875213018 0  0.6002389442105756 1.967426444210576 0  0.1768313172043011 2.03125 0  0.2311882743104251 2.269525712478698 0  2.03125 0.176831317204301 0  2.280262553344767 0.6954945504579233 0  1.979219539285994 1.809922269642997 0  2.336309523809524 1.09375 0  1.09375 2.336309523809524 0  0.9314042474388009 1.662973812215543 0  0.1634067999087722 1.40625 0  2.337090640094896 1.40625 0  1.141616997467638 2.069311773587991 0  0.46875 2.338939559681489 0  1.542440307908715 1.734944797244472 0  1.556713687786879 1.956977865354753 0  0.8264238995344066 1.975424467820646 0  1.466326331454725 1.275271369760862 0  1.655675324257095 0.5444159974393489 0  0.3385416666666666 0.6479255698005697 0  0 0.78125 0  0.5236073939200119 0.984090461540625 0  2.091665741047893 1.519793517904215 0  1.71875 2.5 0  0.5356538886262603 1.623137930505009 0  0 1.09375 0  0.1932884281517095 1.015625 0  0.8569313582417669 1.2198915584249 0  0.8876981284879677 0.8329884081524883 0  1.115618488474214 0.7219586973356271 0  1.186950366204949 1.043465130075318 0  2.057459118787237 1.110823087309335 0  1.830651283878689 2.049810069572418 0  1.689107969301489 1.367247437031697 0  0.4921048768039656 1.298643370653124 0  0.8213975694444444 2.336309523809524 0  2.03125 2.5 0  1.049729400480002 1.283723261332814 0  1.308101375801673 0.6489479469700392 0  2.5 2.34375 0  0.4968777175037714 0.7562964879736076 0  1.40625 2.5 0  1.501347663534097 2.307027627307738 0  1.602813712048603 0.1926218191360736 0  0.8393082906308107 0.463778306132633 0  1.682663349152719 1.598471865581041 0  0.7774174680851571 1.560004941327907 0  1.554204170364662 0.3898593897892066 0  1.842184459051087 0.186443880058197 0  1.358107417651776 1.696381759610015 0  1.18859291992392 1.77598670078022 0  0.1875331222687418 0.7609599743339348 0  1.339536743965101 1.422080365801479 0  0.7788179348750389 0.9955343414928611 0  0.9062978492805438 0.1919636509126373 0  1.256007360640958 0.3160320559396114 0  1.09375 0 0  1.174986727221844 0.1594990293443933 0  2.34375 1.796875 0  2.318026474511116 1.589177949022232 0  2.34375 2.5 0  1.672742954892153 2.332882724550692 0  0.2683637361947215 1.874801596909639 0  2.174770749820102 0.5581009131310781 0  1.443279522965991 0.8870068372898454 0  0.3385416666666667 0.3571428571428572 0  0.78125 0 0  2.060421048269335 2.314363248763811 0  1.088078737088509 0.8967352118723447 0  1.087825368444708 1.454931510884769 0  2.018308232129541 0.8548495425854904 0  1.943987311736842 0.3246298523011434 0  1.71875 0 0  1.85337849796276 1.144833312386208 0  2.3486328125 2.1044921875 0  1.407588788651747 2.042968789119587 0  2.336309523809524 0.865366648092144 0  2.34375 0 0  2.5 0.15625 0  0.15625 2.5 0  0 2.34375 0  0.1638044648294291 1.242263417405867 0  0.356216654757926 1.032569427322806 0  0.3188217956111817 1.355736727000647 0  0.5924956460852111 0.36112522004736 0  0.6594216488965849 0.1603472116132387 0  1.841804599497131 1.72214349266521 0  0.15625 0 0  0 0.15625 0  2.115898634821499 1.894570904464496 0  0.7821877980253907 0.7129993435924866 0  1.003820447087786 0.4516053462784233 0  0.477562948779147 1.138333049293613 0  0.719493678605015 1.305655360135975 0  0.9772457618587566 2.020350128938537 0  0.8764738248887107 1.826219722709673 0  1.254787875123819 2.339010653832026 0  2.343597354852534 1.249982759769001 0  0.78125 2.5 0  0.46875 2.5 0  2.5 1.40625 0  1.09375 2.5 0  2.5 0.78125 0  2.5 1.09375 0  2.03125 0 0  2.5 0.46875 0  1.40625 0 0  0.46875 0 0  0 0.46875 0  0 1.40625 0  0 1.71875 0  0 2.03125 0  2.5 1.71875 0  2.5 2.03125 0  2.005424054645407 1.653223486966518 0  0.1538730573856537 1.559850281736677 0  2.33984375 2.33984375 0  1.166539506212474 1.922878979538754 0  0.3914885633949916 1.65887232812171 0  0.5795503163042564 1.766243562569382 0  0.399533125920212 1.946786875081388 0  0.7866324979014098 2.127719094551316 0  0.3654683023546834 0.1495701132219454 0  0.1527388747131078 0.6116379440619215 0  2.013737577140188 1.391056634712135 0  1.17635437372994 2.213329084238133 0  1.737118141866284 1.010577140843115 0  2.200707118087222 1.164723314085963 0  1.697018908736685 1.993548551451517 0  0.5387621649009668 0.6070503962352419 0  2.032805785855952 0.5330427622570983 0  1.082699501358059 1.667818725183932 0  1.503819781540653 0.5468420196858188 0  2.015409142866072 2.175941657590429 0  1.752057611265444 0.869642097111018 0  0.612251684107783 2.356045720700959 0  1.902817102342857 0.6607642211999982 0  2.159616561739693 0.7867739969338844 0  0.5120038350106624 2.197302352398502 0  1.888200216011548 1.919501662489862 0  1.495909909726654 2.16028358757309 0  0.489139876703609 1.443203008943564 0  0.8819175670410521 0.3301172743913011 0  1.882591144370812 0.8155965192707721 0  1.133979796994841 1.172526771862882 0  2.206217447916667 2.084147135416667 0  2.20361328125 2.36279296875 0  1.395746985657004 1.556054166359645 0  1.704383111516207 1.734750450338683 0  0.9575737847222222 2.36274223823052 0  1.035150984253136 0.1302833343179028 0  1.383966125325753 0.7651479963479179 0  1.64003252158672 0.6824316405528895 0  2.22550785055421 1.487078576356817 0  1.760964431499756 1.48495222505201 0  1.276460980673788 2.004207003584658 0  0.1341477688427096 1.828777507920502 0  1.542261434180652 1.155296658359034 0  1.334627911613854 0.9696897472490321 0  1.30794231473696 1.119420615785191 0  0.7028260459857245 0.4438906910721139 0  1.625757433094055 1.84268057552138 0  0.9818707849053143 1.165603626132254 0  2.0086489901463 1.243134585689553 0  1.934584460420609 2.374094051915812 0  1.798434376789567 2.38671361912528 0  1.206314791201715 1.382064292497919 0  0.6333752893366955 0.7023738550008095 0  0.7796219811205605 1.42573253164258 0  1.564399711917382 1.026040828857629 0  0.3385416666666666 0.4889012896825397 0  0.1041666666666667 0.390625 0  0.989112246382566 1.543537365516289 0  2.025724425454636 0.9846960595520872 0  0.6602885475034063 2.086117390485779 0  1.607130551925032 1.267198646640915 0  0.1317864544877056 0.8896173683400176 0  1.755387840017567 2.230364320056445 0  1.301540702984401 0.1216289692748247 0  1.433170657577442 0.3331052752740999 0  1.500459610550388 0.113513924782439 0  0.6494291520606965 1.029586599619295 0  1.010146149868299 0.794897284196169 0  0.3700844198238017 2.235390157870766 0  0.3360891767780704 2.36656279435396 0  1.876856241037701 1.437150669863757 0  1.778674102957329 1.245979347269706 0  0.5472829890977179 0.1005517127039925 0  0.4669074189005698 0.3416784232954367 0  1.472765289289269 1.850899166481903 0  1.555853593327178 1.608452097912802 0  0.6708955559113426 1.646561631116984 0  0.8164699620322933 0.5924479455478063 0  0.3167738989468366 1.758696809749795 0  0.2788007305565096 1.605499483471246 0  0.7821720982350511 0.181524936294752 0  1.376812251214195 2.313340247908297 0  1.785652202614777 0.5962261755537186 0  1.761467296310972 0.4679567244718574 0  2.2265625 1.8359375 0  2.3828125 1.9140625 0  0.5279531607054191 2.071552361614785 0  2.397573269551114 0.234375 0  2.383578172599618 0.3589298466020009 0  0.1024267304488855 2.265625 0  0.1164218274003825 2.141070153397999 0  0.2696857594953064 2.135405441512016 0  2.164961300137334 0.1375322943529536 0  2.137757548369486 0.2724194778647587 0  2.238873711826398 0.3626419179496562 0  0.1001414910226386 0.234375 0  0.2176339285714286 0.3478422619047619 0  0.2503620791333544 0.1061694061057066 0  2.336445461915368 0.1250451055247424 0  0.2154004640409726 2.3918124
[...]
<PointData  Scalars="f_49-2"> 
<DataArray  type="Float64"  Name="f_49-2"  format="ascii">1.7116599003541961e-19  2.5217549720354775e-17  3.1471493605556847e-24  -9.3957726487001663e-19  3.6436885916069791e-18  -4.8747740448358752e-23  2.7724311942168460e-19  1.0875209994120605e-16  4.5259379804347540e-17  6.3456344108928216e-17  1.6783409077657862e-17  2.4085640774964279e-19  3.0144348467563379e-17  2.4825127065087677e-24  2.2514677144967183e-20  -8.3369198825645968e-19  -4.7486598555969239e-18  1.9942797729887640e-19  5.6508301497804053e-17  1.4306748483943568e-17  -1.5043084337563300e-16  4.6468578400365914e-16  1.5493318506632664e-16  2.4871127474773182e-16  -2.4279129621938077e-16  9.2744577363911762e-17  2.6192860411903929e-18  6.9689531121263135e-18  2.3155002654092792e-21  1.8176813358121171e-21  9.9928701662264274e-18  -4.6197258153601847e-18  1.6873305860334716e-16  -5.1044649766053173e-17  4.9690570409997145e-18  6.0894303042901504e-16  1.3855931894553705e-19  6.3570654747109501e-16  -5.0148295549358462e-16  -2.0130979450097006e-17  7.5130774990426648e-18  -1.8985242318279237e-19  2.1758813380114344e-17  1.1127508309428018e-17  -2.8163079934502375e-18  -5.2289687006750389e-18  1.0962369078727029e-16  1.6901407422681861e-15  -7.3315094024699543e-16  4.6825468555582006e-19  9.6153136361074432e-18  1.5473839648402994e-19  2.3083743294451696e-22  6.8601528427111321e-24  1.0403242843686673e-16  8.3558353566085655e-17  2.4875589928485378e-19  1.9656418427563873e-24  4.1283073558398928e-18  2.9929495966409061e-20  -4.0807740075880792e-20  1.4170726777337543e-17  5.1484837470380416e-17  8.1227169579803163e-18  6.5568706387371237e-16  5.1413928515888949e-17  1.0712097048807332e-16  6.4421612745961699e-21  4.0040445021021867e-18  6.0263785182061958e-20  -4.0451559527568496e-18  1.4260471101268930e-18  6.4165415451895151e-17  1.4052428363442016e-15  1.8399774417228554e-17  8.6892680956252497e-17  -2.7862739114447019e-17  -3.5790850240706606e-17  -8.9180524706412379e-17  1.7654266232117326e-18  1.3645211817553753e-17  6.2408079159880561e-18  -5.8118230973288940e-18  7.3662143451365363e-19  3.3388720256699673e-20  4.6083657430609899e-23  1.1065576775940026e-22  2.6168921398097473e-17  1.3116214943732205e-17  1.9401890562359798e-18  3.6471388379922895e-21  1.9402168359905395e-22  -2.9584271019547549e-16  1.6947393940100203e-22  1.5667134146250117e-18  1.3017564774595613e-16  1.0196526439653504e-16  -5.1259235496057235e-20  1.7059413380070699e-17  1.1387511014011429e-18  -5.1891336560206966e-16  -1.5675419303008213e-16  2.5553211375392037e-17  -1.2494368654341498e-16  4.9953381574016295e-19  1.3982635918439126e-15  8.8324001427421195e-17  6.0158739548595316e-16  -7.6423224967716194e-18  -1.7653337723100174e-18  7.8556463461164222e-17  1.0949622844284856e-16  1.0683083595415908e-16  1.3679039923180607e-15  2.2839857980341412e-16  8.2729009175980623e-18  2.8319941125990433e-17  -4.6333778331888159e-21  -3.7525798060603359e-16  -8.9585074586829162e-17  1.0997443317777003e-16  1.5195463084073154e-18  -7.8950223737362491e-18  1.0797712039277771e-15  3.6550289179281770e-18  -2.0502705904613751e-18  2.0199275080640522e-15  2.7826473587106637e-19  1.6997311175463121e-18  3.9589679879551533e-19  1.1852168781799501e-17  -6.1346134557372618e-16  1.0547695280303634e-16  8.8204900072148953e-19  3.2178086490162168e-20  2.5674909387301452e-16  2.4759086846544751e-16  9.1451900528770780e-17  -1.0546739615171651e-16  1.7574649575477492e-15  1.0589885784809022e-17  4.2154445401762473e-18  6.4909853895582936e-18  5.6433505031403742e-18  -4.6170537476207845e-18  -9.5302200426846020e-19  -2.7883781616774971e-18  -9.9572207691800451e-18  3.6009324835335175e-17  6.7175748350496251e-22  1.9812614307334699e-18  2.0685661359299259e-16  1.2880529034492100e-17  -4.1205394438153035e-17  3.4939786130316183e-17  9.5741826623060684e-16  1.5884881028339101e-20  1.2978376393973037e-20  1.2877438663730574e-19  -3.3183001676403671e-19  -1.5371032488892099e-17  3.6665348953219720e-17  1.1779570719637459e-22  3.4398673026630310e-23  2.2140905618195165e-24  1.5122851700632576e-19  6.7414053428971463e-19  1.0880922452586784e-16  1.1366001338788159e-16  1.0477960286941246e-16  1.5628474121380733e-17  1.5923457526177925e-17  -5.1426700990406901e-16  2.4170828672956844e-17  2.4762274727830293e-17  -1.1642572825312186e-16  1.6823506810027715e-16  8.8468453658555388e-18  1.4124927824938267e-16  3.3668713682125972e-16  2.0234330136234215e-17  4.8923560845169324e-17  1.7055232388345967e-18  -1.5250058647639179e-21  2.2967381007317390e-19  1.5090138450351131e-19  -2.5590560218293550e-21  2.5072028431676688e-19  5.0598002780129629e-24  1.4893488239349978e-23  3.6258064617926746e-21  2.0133373617613304e-24  1.1854377831993016e-18  1.9557414857189485e-17  3.7487297249472395e-17  1.0168819951376703e-16  6.0600443363346922e-17  1.4311044653979930e-17  -2.4212002113275772e-19  -1.9398842047515782e-18  -8.5466541507562253e-17  8.5360176097243952e-17  -9.3266155813710057e-18  6.8659549781226867e-17  7.6769771497806015e-17  5.6500583835244568e-17  2.6456721037888305e-17  9.8256580976620421e-18  2.0531474376244496e-17  7.9355015751230940e-17  -4.4442680376912484e-18  5.6591715853345515e-18  1.5854991962419645e-19  -9.7469946231663603e-22  -4.1634799662833948e-16  8.8857351073594581e-16  6.1066041620061421e-21  3.2948427656979627e-16  1.3489333856668291e-18  -1.3311682274591039e-16  2.5794056500208077e-19  9.9729867344070086e-19  4.7013166648312407e-20  1.8016838105740128e-21  4.6077031952068687e-18  -5.1681513938146774e-16  4.5405918100420017e-18  9.8930713845254690e-17  1.1152652131434066e-17  5.8223884405904897e-20  3.2613556066549999e-16  -6.0094306464298152e-17  -1.5546774991697032e-17  -1.8902219634473447e-16  -8.1833976536855083e-16  1.0537066619277146e-18  8.0905502410862068e-18  2.7585175316225131e-18  5.6161814297261807e-19  -1.0978459988638607e-18  -1.8874753144376052e-16  5.2209832411969096e-17  4.4359193212583730e-17  -1.5397880690052361e-17  2.6722486057081357e-18  -3.4241619677705294e-17  1.5892394408985010e-17  -6.0247546464609433e-16  1.2365493399145954e-15  -5.1787508626118957e-19  -2.7548489155115851e-17  -1.2956280025119559e-17  5.1688528659442581e-16  9.9838197979276141e-16  2.2076120674881787e-16  2.8406083362402927e-19  1.5224707263125960e-15  3.5819851585673440e-16  4.4857792901768551e-16  1.2135948280920290e-20  1.1905300348414485e-17  -5.1899809887363716e-17  9.8775634789283317e-17  -6.3269226232615669e-17  2.9834261599685045e-18  1.8760909456551863e-18  8.1869068430758695e-19  1.2711864455028806e-15  3.4398679143455475e-17  2.9762794234802431e-18  6.9915296572995821e-19  -3.4818930529692925e-17  -7.3708809902499240e-18  1.7939611965529345e-17  2.0179219569982711e-17  -7.0563012001715942e-17  -7.1217564412015115e-16  7.3678390193576164e-17  2.5098902345107671e-17  5.7136379337178410e-17  8.2311068519719896e-17  1.3429109806836619e-17  2.2561254328392981e-18  1.6728857803827194e-19  1.4101174223222957e-19  -2.9882304472959351e-17  -5.3012289764064064e-18  1.3164931275942320e-17  8.5419436019501554e-24  1.7433977325747417e-23  1.9903403103082603e-18  6.9730714777363203e-18  6.7334869328935617e-18  5.9399132981323656e-22  8.6186711441827429e-22  2.1924292823585505e-22  -4.8340653510678230e-18  9.4162344319408072e-16  2.2291586731227744e-17  2.4254588784691920e-23  5.5115150890325981e-19  4.9177851935018683e-18  2.2656983156053188e-17  1.4922650692527872e-19  7.6218034869119652e-18  5.7683594455358904e-18  3.8984549792387719e-18  2.0260764539189579e-17  -3.4790747538820459e-16  1.4194384315199718e-15  2.3144310266489582e-17  1.1640178788483770e-20  2.7597399939976781e-23  3.4568623803307235e-23  -8.8168907797666131e-18  5.9791534896589790e-17  3.6309644850756133e-17  3.6211567980292442e-17  1.1644991039005736e-18  -5.9269306584489484e-18  -2.1789917962302605e-16  4.7709067654087381e-20  9.2200312133233521e-16  7.3478058736747893e-17  8.4490564153466401e-17  1.1423318838768069e-21  1.1671003143747631e-17  1.1161612679892230e-21  1.3522019078164379e-17  1.0976968108920799e-16  7.1984652022167641e-23  7.7887670248967973e-17  1.7391367107613942e-16  -8.2254657941305090e-17  -3.2344731936280889e-16  1.0334893123157971e-20  6.5212681806323362e-19  9.7728650896360259e-17  1.0638637863251928e-16  -4.7420841836930602e-20  -4.6949880844423995e-20  1.5573929970423314e-15  2.7800458201695422e-19  5.0956943820153169e-19  -2.2718441551611631e-16  5.9448142977748561e-20  -3.9775028187936653e-19  -1.1250788521379374e-16  -4.9859733709894789e-17  6.4832345477846438e-19  1.2203618737057006e-15  2.6350817870925706e-16  1.6666493247344186e-15  1.1290440184269882e-15  4.0829893648509416e-19  7.2966566755911543e-17  1.0984803422230623e-16  -1.7568766748237372e-21  1.6265494054854976e-23  6.7258661206666953e-19  4.2661280025776045e-19  -2.7446770945555114e-18  -4.3492865214413979e-17  -1.3134361733329038e-18  2.4179066800138816e-18  -1.3938635914616874e-17  9.1294472359677474e-19  -2.3522568625762909e-16  1.4719116780028235e-17  3.2419151347571288e-17  -1.3676432427323873e-16  9.5908312882256206e-17  1.6703054069496645e-17  -8.8867283661620916e-17  -3.0102766866252958e-16  4.3893667937237945e-16  1.1735601110256296e-17  4.9065127314481133e-19  1.7970591690415496e-15  5.7006439294596709e-17  6.6041632751385068e-16  2.0515205821496664e-16  2.4476172255535542e-20  6.4196077722331654e-16  1.4435693339719323e-16  6.4531459815646893e-16  3.1187114814694111e-17  1.0361373472280033e-17  4.5787137944781915e-22  2.1813885927991304e-16  4.1047497730868882e-18  1.6401673378846059e-17  4.1509843297519240e-18  1.0102477884216638e-16  8.4344021040515050e-16  -8.6379478838134652e-17  -3.5089511002876254e-16  3.6004264925644227e-19  -3.7938548721986445e-18  1.1166640378919118e-15  4.3411484035211135e-17  1.0639686565052508e-16  1.3066820439498414e-20  4.3385372640082225e-21  2.8869937595233566e-16  -4.0867116837328590e-20  -6.1922013030999661e-19  8.6792959846086555e-17  1.9628159926289414e-15  1.0296268063478259e-23  5.4596970334537477e-18  4.9138871934746982e-18  9.1364220288815985e-18  4.1360294155487711e-22  6.8398863180191120e-17  8.7660824500344725e-17  -2.9602935066144438e-17  2.0269512695511954e-15  3.8031785745026910e-16  1.7287324260136004e-19  4.5589853561499087e-16  6.5759380183439578e-17  -5.5477451564842711e-16  -6.6115417686309970e-18  1.0983817849712177e-16  1.0985996633150991e-16  4.3864446655354931e-17  -5.8154643238134162e-16  -5.5678932732829066e-16  -3.8543779760022267e-16  1.4569807405562391e-17  7.5061141121680042e-16  5.9615041450843724e-19  2.0316864183786389e-18  3.4771356007001839e-21  4.0230327581951569e-18  2.1937383782477692e-17  1.6563569416983954e-18  2.0050805855810927e-19  1.4040692715688504e-17  1.5624330809974410e-22  5.8378638500802831e-17  1.5136488839924524e-16  5.8258255232305722e-20  -6.3417355783653818e-18  1.8736990629471712e-15  -8.0411215211847489e-16  2.3008994069791881e-18  9.5035795330262203e-18  9.2402990791915675e-23  4.3983842065560795e-16  1.0928557544830289e-16  5.6933159024810799e-18  -1.1221518761765329e-17  6.7733358379742079e-22  2.2559010730251682e-19  1.4105405397915308e-17  1.3535251034231759e-15  9.2991526427456410e-16  8.9840988173860088e-17  -3.1535712229558451e-17  8.6986757209684539e-19  1.0806977487127012e-16  9.5354994158244351e-22  2.2090932854969238e-21  1.0360542170753692e-16  2.6645284970069307e-18  2.5053635076582305e-16  8.5213256369493714e-19  2.2672213738740891e-16  1.0079091611726430e-20  1.3143838822451207e-17  1.1512222638861851e-17  5.7197246624961175e-18  2.9984234490227104e-18  2.8791197364198199e-18  2.8318545026940009e-16  1.6125384331270364e-16  4.0140572230722402e-16  1.9447228142768159e-17  1.5615314800986861e-19  -6.5017290281863467e-17  -3.8309734557064560e-17  2.0266546303961905e-18  1.7898382918790951e-16  -4.5495682715225034e-19  1.8720712585685295e-17  7.1078626339529693e-18  6.8287663109096118e-16  7.9521707724173808e-18  1.0077798180127130e-16  1.5795632549483140e-18  -3.4545408376293795e-17  1.1326252751515837e-18  5.6299802282566382e-24  -2.8489851731689700e-19  -8.9776623420924690e-19  -1.4546436458994419e-16  3.0312014215397225e-17  -1.3165762354566625e-16  1.2516550250953692e-20  -2.4438281401769104e-18  3.5866921709607494e-17  2.0328656629145389e-17  1.8380923235419359e-24  1.1757138934784002e-23  6.4610783292126374e-19  9.6330405879098864e-18  4.3194697297561353e-17  4.9386726953805587e-17  1.4979490955055709e-19  -2.1052684902189764e-17  8.8420168875453841e-18  2.2236335518896882e-17  9.0707493774228963e-18  1.8847371495854145e-16  -6.2326304475936078e-20  4.6305272602772036e-17  2.2122253933331993e-17  3.9234037969771094e-19  5.3695824565897584e-19  6.6550992612249323e-18  1.2359279853088199e-17  -6.6535787240188771e-17  1.7360739886999948e-22  5.1675329858866734e-18  3.8090192189284658e-17  -4.2091183574304752e-19  6.5421977929606711e-20  -2.3912651675181039e-16  1.3841697420719382e-17  -6.7214877617929944e-17  2.5318844478088311e-21  4.3172323081936478e-18  3.7082802366653701e-24  7.0764015763178115e-21  7.2280595966525752e-21  2.8804968721958615e-20  -1.9428362088394318e-18  -1.3995965730745552e-17  -8.6958166631854521e-19  2.9891818215804826e-24  8.5061479217706202e-18  1.3369183864665322e-21  1.0926545376818967e-16  1.1415602754420746e-16  4.3010376609666134e-19  -2.0683454093929714e-17  -4.9656045820562206e-18  -1.7932979618164916e-17  -7.0379773961507035e-18  -3.1238782760313832e-17  3.2527618974873434e-18  1.5703809020973013e-18  5.3283030381816129e-23  4.3251151748028620e-18  6.9972447821295833e-17  1.0530920911029490e-17  -2.3439816466750924e-16  2.1231967315734665e-18  1.5206297575830608e-22  7.2568271743272251e-17  1.2324472461972144e-15  1.4960189577407823e-16  9.3156414632418526e-17  6.5274985072028954e-24  -3.4782334826089410e-16  9.8750369073782187e-17  1.4292434877927456e-23  1.1051389404287913e-18  8.9839702136053263e-19  3.3548829542599615e-19  1.6859259835457823e-17  -4.5946692569996721e-18  -5.5823941900410431e-16  -4.3821860803617547e-17  -6.1439805917395360e-18  1.0472881911900701e-16  8.9645380264102354e-17  4.1135549773085331e-16  -6.1122113728609969e-21  2.6913346846327563e-23  5.5351401363608650e-17  -5.8231301867936898e-16  1.7303212272360119e-17  9.1134404278201653e-19  -1.2869348887184369e-18  2.3538738428986769e-17  1.0549053575610261e-16  1.4502116859454056e-16  -7.5075469392714618e-16  1.0746632619453054e-16  -5.7600273351800399e-18  7.3661164199001808e-18  -2.4164943002335373e-19  6.7568203020415553e-20  1.8414526215358820e-17  1.0458006809108624e-16  1.4461166006377453e-17  1.6794871990457311e-17  1.5136144028252111e-17  3.7513373472421844e-17  1.6496082165652124e-17  4.9625137157620258e-23  1.2369248473186787e-23  3.6211501520783198e-16  7.7631429102733859e-16  -5.9531898203034449e-18  9.9570014221458277e-17  7.2435261894285958e-16  -7.5568665729037379e-16  -7.2945037824960171e-23  8.5361992515222597e-18  -5.5874849345343155e-17  1.7739304678932743e-22  -3.0434047674067799e-17  8.5291984372552203e-17  -7.8245219359731831e-17  1.7790428200109260e-17  -1.6070438321754460e-16  1.9496937976975657e-18  3.4792388968711116e-18  1.4789202482333556e-18  2.4609429129715468e-17  2.5526626761937502e-17  -1.8078957835425356e-16  2.3301324595160219e-18  -1.7011555161394404e-17  2.1042686298186464e-17  7.2086823631843104e-18  6.2178190130519217e-24  2.2211726121778726e-16  7.4698740489013732e-16  4.1392801074933669e-19  -3.2644352857438908e-17  1.2176988296188210e-16  7.5913395985800914e-18  -7.3609465193301570e-18  2.1776956553547309e-17  1.9053974811115275e-22  3.9073579366010033e-21  8.8789886882279641e-18  1.0180971414925913e-21  1.9336088885895369e-15  6.8259527323502490e-17  7.7814897527884243e-18  1.6845094263922330e-17  4.7270983916283353e-17  -2.6307528173092194e-16  1.3116496642930611e-19  -6.0440451349167714e-16  1.3119305482869979e-15  1.9435206191959536e-16  -1.8350808963803129e-17  -9.8652075867484645e-21  -2.5633844083707580e-22  7.0302477198827150e-18  1.0890466723400343e-16  6.4567896557268376e-19  -1.1448858311921018e-19  4.6721266645016400e-18  -3.6554032478294964e-18  2.3666282215047106e-19  -7.3125514937011434e-18  3.6351591289173824e-19  1.6949561072795066e-19  2.5324112428105086e-19  7.2723965105101802e-17  2.4088732247883559e-19  -1.2544017560750715e-19  4.5471267134097723e-20  2.4304814413526438e-19  1.1872668475301235e-23  -3.4098954171418902e-22  -1.1033335162872756e-20  1.0770098327216895e-16  1.0976674290505713e-16  1.0621542167694364e-16  2.5416831225240276e-19  7.4323850213696850e-17  1.1160951369273922e-17  9.8423738811238929e-21  2.2050682778036771e-17  1.4621022350904091e-19  2.3265605161149322e-17  1.5906801975240899e-18  1.7235784637435548e-24  1.8432275996616803e-17  8.3737774604641629e-19  2.0569075234831730e-17  1.7146035385049150e-17  -3.4282323603772157e-18  -2.4989907127700861e-18  -1.5980185125251526e-18  -1.5688180555249069e-18  9.2013120771201337e-17  1.9333458097787847e-19  5.1664114293451063e-17  -4.6880440587114625e-19  -2.6271665084635365e-18  2.1163579095900207e-24  5.3857357833658315e-20  6.7963956561025155e-18  2.9203263270127106e-16  5.1929185520033904e-19  1.6527558704110127e-18  7.0122463239727735e-19  1.6308870185512412e-16  1.8475482996476041e-15  6.0769646472817691e-16  -1.2118551202231958e-17  1.9855364689777195e-17  1.2897560708191468e-15  5.5027447502060000e-17  1.7249761898738112e-17  7.7215223229517564e-16  7.5095216089172096e-18  1.2692207642476513e-17  9.7353661194750932e-17  8.4959960825754104e-17  7.8340673923545870e-17  1.0602350549915673e-16  7.7459714040739156e-17  3.3113312421836531e-16  4.7479425646237429e-22  -2.9686894702720171e-16  3.0753405260751542e-17  -2.8135873487705424e-20  1.7942535325854061e-15  -1.5451971771012086e-20  9.0855523990959342e-17  1.7252065831715420e-17  7.4030429405117322e-16  1.3207666552914559e-16  -2.4658410824992989e-16  2.2819253860072377e-17  1.8651241370404389e-18  1.6293270519666319e-15  1.5602593675592582e-15  1.9520289754307083e-20  2.9497964284086788e-22  1.2766080455890273e-15  2.5326713430747895e-21  5.9575835663705867e-22  2.6122826110529730e-16  -4.1237286042213105e-19  2.9266774426610745e-17  -2.3498986555035469e-17  3.8099636102814687e-17  -3.6502755024191638e-18  7.1914654160656835e-17  6.1741583208900144e-17  -2.4055776259478157e-17  -9.2041802010200146e-18  -2.4658549123948130e-18  -4.9825975700923071e-18  -9.9290080547121391e-19  7.9060270476773989e-18  1.0195874677259868e-16  2.5822360867739021e-17  5.6036895859219593e-17  3.5526683506960847e-18  3.9094860523885200e-17  3.2048816894808102e-17  1.4766010233633481e-18  1.0975114388130580e-19  1.2246479957673612e-19  5.9240262161407976e-20  1.1885410010393224e-17  3.3321390118166995e-17  8.4745121792414127e-17  8.0072487711355603e-17  6.4755759377728673e-17  4.9198420139313463e-17  5.9308326830433116e-22  3.3421269383041789e-18  3.1008319116326198e-18  4.1733704181058852e-18  5.0816983254651961e-18  2.6367454167021241e-18  -3.7958679406553794e-18  -3.5048688635603402e-16  1.4616539715886824e-18  -1.9329103291810274e-18  3.0803674893436456e-23  -2.0201310698090330e-19  1.7260797440338241e-16  1.3638490998620444e-16  1.0944307809969703e-16  -1.1679486759985764e-16  4.9646402872044611e-21  2.0129009840120483e-16  2.6496776009639742e-18  -1.8925070804684170e-17  1.2122761101297216e-15  2.0812861853353396e-20  -1.8998066279806972e-16  -1.3434350510931028e-16  -4.8917325718877243e-18  2.7596592211859333e-21  3.5514928113734115e-19  9.8692983655233141e-17  8.6625172850579668e-17  -1.0580465232723479e-16  1.0704634141141243e-16  -2.5593664882598874e-16  -4.0264124706238049e-16  4.5326880182868074e-17  5.2710731818225913e-23  5.3104123099834144e-18  5.6645342951076201e-16  9.9632961726538227e-17  1.0365555488134324e-16  2.1258788854422405e-18  4.8924746364379739e-19  1.4377444628250078e-20  3.0398419475628802e-19  1.9910842491072147e-20  4.9881638149315533e-23  -2.5775148442801510e-17  8.6440966695989789e-18  5.17397