<?xml version="1.0"?>
<VTKFile type="UnstructuredGrid"  version="0.1"  >
<UnstructuredGrid>
<Piece  NumberOfPoints="6486" NumberOfCells="12696">
<Points>
<DataArray  type="Float64"  NumberOfComponents="3"  format="ascii">0 5 0  0 0 0  5 0 0  5 5 0  2.5 0 0  5 2.5 0  2.5 5 0  0 2.5 0  2.5 2.5 0  0 1.25 0  1.25 0 0  1.25 5 0  0 3.75 0  5 1.25 0  3.75 0 0  5 3.75 0  3.75 5 0  3.541666666666667 1.458333333333333 0  1.458333333333333 3.541666666666667 0  1.875 1.25 0  3.75 3.125 0  1.284722222222222 2.326388888888889 0  2.683189655172414 3.767959770114943 0  0.9375 0.9375 0  4.0625 4.0625 0  0.7252209595959597 3.026357323232324 0  2.763480392156863 0.9129901960784315 0  1.875 4.345238095238095 0  4.345238095238095 1.875 0  4.192708333333333 0.8072916666666664 0  0.8072916666666665 4.192708333333334 0  3.368055555555555 2.326388888888889 0  0.6837606837606839 1.738782051282051 0  3.285485245626782 4.324328415208927 0  2.551239698778062 1.693130150610969 0  1.827256944444444 2.868923611111111 0  3.464875022477093 0.6813924607921316 0  1.942880513719175 2.059558626187995 0  3.04563492063492 2.971230158730159 0  4.375 3.4375 0  2.13639445139758 0.5994472256987903 0  4.272228422619047 2.606956845238095 0  0.625 0 0  0 0.625 0  5 4.375 0  4.375 5 0  0.6400043240752655 2.384646170113389 0  1.347691225855598 1.660875475110776 0  3.515783617857982 3.723905460714006 0  3.125 0 0  1.875 0 0  0.625 5 0  4.375 0 0  5 1.875 0  0 1.875 0  0 3.125 0  1.875 5 0  5 0.625 0  0 4.375 0  3.125 5 0  5 3.125 0  1.489644181965304 0.6007147273217681 0  2.054597701149425 3.742302955665024 0  2.662520990197781 4.39452575763237 0  2.415835363784578 3.165530021913244 0  0.8679986894865213 3.602373689486522 0  1.267459753787878 2.886186079545454 0  4.099702380952381 1.365327380952381 0  1.316964285714286 4.438244047619047 0  3.7915135293491 1.959691594758709 0  2.875141124191255 2.118761176511833 0  3.00418010501169 1.397414179299248 0  0.4081721322167092 3.410647930198662 0  0.4166666666666666 0.9375 0  1.014190407998288 0.4422301359994293 0  1.383260571305984 1.162718286082048 0  4.53125 3.90625 0  4.453125 4.453125 0  3.772848162504192 4.48678272083473 0  2.8125 0.404329517041716 0  0.4538690476190476 0.4538690476190476 0  2.305461739347387 1.04517007574828 0  3.771263799175824 2.624190260297553 0  3.229617768018734 1.809956994202883 0  3.780190884441317 1.025307111692601 0  4.646337365591398 0.9375 0  4.537623451379149 0.4609485750426037 0  1.200477888421151 3.934852888421152 0  0.3536626344086022 4.0625 0  0.4623765486208503 4.539051424957397 0  4.0625 0.353662634408602 0  4.560525106689535 1.390989100915847 0  3.958439078571988 3.619844539285994 0  4.672619047619047 2.1875 0  2.1875 4.672619047619047 0  1.862808494877602 3.325947624431087 0  0.3268135998175443 2.8125 0  4.674181280189791 2.8125 0  2.283233994935276 4.138623547175983 0  0.9375 4.677879119362977 0  3.08488061581743 3.469889594488945 0  3.113427375573758 3.913955730709506 0  1.652847799068813 3.950848935641292 0  2.932652662909449 2.550542739521724 0  3.311350648514189 1.088831994878698 0  0.6770833333333333 1.295851139601139 0  0 1.5625 0  1.047214787840024 1.96818092308125 0  4.183331482095785 3.03958703580843 0  3.4375 5 0  1.071307777252521 3.246275861010018 0  0 2.1875 0  0.386576856303419 2.03125 0  1.713862716483534 2.439783116849799 0  1.775396256975935 1.665976816304977 0  2.231236976948428 1.443917394671254 0  2.373900732409897 2.086930260150635 0  4.114918237574474 2.221646174618671 0  3.661302567757379 4.099620139144836 0  3.378215938602977 2.734494874063393 0  0.9842097536079312 2.597286741306247 0  1.642795138888889 4.672619047619047 0  4.0625 5 0  2.099458800960004 2.567446522665629 0  2.616202751603346 1.297895893940078 0  5 4.6875 0  0.9937554350075428 1.512592975947215 0  2.8125 5 0  3.002695327068194 4.614055254615477 0  3.205627424097207 0.3852436382721472 0  1.678616581261621 0.927556612265266 0  3.365326698305438 3.196943731162083 0  1.554834936170314 3.120009882655813 0  3.108408340729323 0.7797187795784133 0  3.684368918102174 0.3728877601163941 0  2.716214835303553 3.39276351922003 0  2.37718583984784 3.551973401560441 0  0.3750662445374837 1.52191994866787 0  2.679073487930202 2.844160731602957 0  1.557635869750078 1.991068682985722 0  1.812595698561088 0.3839273018252746 0  2.512014721281916 0.6320641118792227 0  2.1875 0 0  2.349973454443689 0.3189980586887866 0  4.6875 3.59375 0  4.636052949022233 3.178355898044465 0  4.6875 5 0  3.345485909784306 4.665765449101383 0  0.536727472389443 3.749603193819277 0  4.349541499640203 1.116201826262156 0  2.886559045931982 1.774013674579691 0  0.6770833333333334 0.7142857142857143 0  1.5625 0 0  4.120842096538671 4.628726497527622 0  2.176157474177018 1.793470423744689 0  2.175650736889416 2.909863021769539 0  4.036616464259081 1.709699085170981 0  3.887974623473683 0.6492597046022868 0  3.4375 0 0  3.70675699592552 2.289666624772415 0  4.697265625 4.208984375 0  2.815177577303495 4.085937578239174 0  4.672619047619047 1.730733296184288 0  4.6875 0 0  5 0.3125 0  0.3125 5 0  0 4.6875 0  0.3276089296588581 2.484526834811734 0  0.712433309515852 2.065138854645612 0  0.6376435912223634 2.711473454001295 0  1.184991292170422 0.7222504400947201 0  1.31884329779317 0.3206944232264773 0  3.683609198994263 3.44428698533042 0  0.3125 0 0  0 0.3125 0  4.231797269642997 3.789141808928991 0  1.564375596050781 1.425998687184973 0  2.007640894175573 0.9032106925568466 0  0.955125897558294 2.276666098587227 0  1.43898735721003 2.611310720271951 0  1.954491523717513 4.040700257877075 0  1.752947649777421 3.652439445419346 0  2.509575750247638 4.678021307664052 0  4.687194709705067 2.499965519538002 0  1.5625 5 0  0.9375 5 0  5 2.8125 0  2.1875 5 0  5 1.5625 0  5 2.1875 0  4.0625 0 0  5 0.9375 0  2.8125 0 0  0.9375 0 0  0 0.9375 0  0 2.8125 0  0 3.4375 0  0 4.0625 0  5 3.4375 0  5 4.0625 0  4.010848109290813 3.306446973933037 0  0.3077461147713075 3.119700563473354 0  4.6796875 4.6796875 0  2.333079012424948 3.845757959077508 0  0.7829771267899832 3.317744656243421 0  1.159100632608513 3.532487125138763 0  0.799066251840424 3.893573750162776 0  1.57326499580282 4.255438189102632 0  0.7309366047093668 0.2991402264438908 0  0.3054777494262156 1.223275888123843 0  4.027475154280377 2.78211326942427 0  2.35270874745988 4.426658168476266 0  3.474236283732569 2.021154281686229 0  4.401414236174444 2.329446628171927 0  3.39403781747337 3.987097102903034 0  1.077524329801934 1.214100792470484 0  4.065611571711903 1.066085524514197 0  2.165399002716117 3.335637450367864 0  3.007639563081306 1.093684039371638 0  4.030818285732145 4.351883315180857 0  3.504115222530889 1.739284194222036 0  1.224503368215566 4.712091441401919 0  3.805634204685714 1.321528442399996 0  4.319233123479386 1.573547993867769 0  1.024007670021325 4.394604704797005 0  3.776400432023095 3.839003324979723 0  2.991819819453308 4.320567175146181 0  0.9782797534072181 2.886406017887129 0  1.763835134082104 0.6602345487826022 0  3.765182288741625 1.631193038541544 0  2.267959593989681 2.345053543725764 0  4.412434895833333 4.168294270833333 0  4.4072265625 4.7255859375 0  2.791493971314009 3.11210833271929 0  3.408766223032414 3.469500900677365 0  1.915147569444444 4.725484476461039 0  2.070301968506271 0.2605666686358055 0  2.767932250651506 1.530295992695836 0  3.280065043173439 1.364863281105779 0  4.45101570110842 2.974157152713635 0  3.521928862999512 2.96990445010402 0  2.552921961347576 4.008414007169315 0  0.2682955376854191 3.657555015841003 0  3.084522868361304 2.310593316718068 0  2.669255823227708 1.939379494498064 0  2.615884629473921 2.238841231570381 0  1.405652091971449 0.8877813821442277 0  3.25151486618811 3.68536115104276 0  1.963741569810629 2.331207252264507 0  4.017297980292599 2.486269171379106 0  3.869168920841219 4.748188103831625 0  3.596868753579134 4.77342723825056 0  2.41262958240343 2.764128584995838 0  1.266750578673391 1.404747710001619 0  1.559243962241121 2.85146506328516 0  3.128799423834764 2.052081657715259 0  0.6770833333333333 0.9778025793650794 0  0.2083333333333333 0.78125 0  1.978224492765132 3.087074731032578 0  4.051448850909273 1.969392119104174 0  1.320577095006813 4.172234780971559 0  3.214261103850064 2.534397293281829 0  0.2635729089754111 1.779234736680035 0  3.510775680035133 4.460728640112889 0  2.603081405968802 0.2432579385496493 0  2.866341315154884 0.6662105505481998 0  3.000919221100777 0.2270278495648781 0  1.298858304121393 2.05917319923859 0  2.020292299736597 1.589794568392338 0  0.7401688396476035 4.470780315741533 0  0.6721783535561408 4.733125588707921 0  3.753712482075402 2.874301339727514 0  3.557348205914658 2.491958694539413 0  1.094565978195436 0.2011034254079851 0  0.9338148378011396 0.6833568465908735 0  2.945530578578538 3.701798332963805 0  3.111707186654356 3.216904195825605 0  1.341791111822685 3.293123262233967 0  1.632939924064587 1.184895891095613 0  0.6335477978936732 3.517393619499591 0  0.5576014611130192 3.210998966942492 0  1.564344196470102 0.3630498725895039 0  2.75362450242839 4.626680495816594 0  3.571304405229554 1.192452351107437 0  3.522934592621944 0.9359134489437148 0  4.453125 3.671875 0  4.765625 3.828125 0  1.055906321410838 4.14310472322957 0  4.795146539102229 0.46875 0  4.767156345199235 0.7178596932040019 0  0.2048534608977711 4.53125 0  0.232843654800765 4.282140306795998 0  0.5393715189906129 4.270810883024032 0  4.329922600274667 0.2750645887059072 0  4.275515096738972 0.5448389557295173 0  4.477747423652795 0.7252838358993123 0  0.2002829820452772 0.46875 0  0.4352678571428572 0.6956845238095237 0  0.5007241582667088 0.2123388122114133 0  4.672890923830735 0.2500902110494848 0  0.4308009280819452 4.783624996516437 0  2.104871305393774 4.438653689007242 0  0.2274454167838428 0.2274454167838428 0  3.446466574593436 0.4359605369011901 0  2.12354112127588 1.217588426759619 0  2.309175236825235 0.7888355970690434 0  2.556178570281936 1.054299163237582 0  0.578683248637
[...]
<PointData  Scalars="f_10845-2"> 
<DataArray  type="Float64"  Name="f_10845-2"  format="ascii">7.9358148423357040e-03  -9.0222051969688161e-08  8.5356894462225172e-13  6.0219125804491407e-13  6.6212049726869014e-12  7.7588930465287251e-13  1.1531226569486541e-04  4.0475018366288632e+05  -5.4519663257340603e-12  -5.8084278987830834e-02  9.1929970359557552e-12  8.9251328624270450e-04  6.6111348144456912e+01  8.1179166144071684e-13  3.2565674465534852e-12  7.6067765939599345e-13  9.5430530336627523e-13  3.7131349593075610e-12  5.7329065015226477e-01  8.3089286575770748e-12  3.2044868799890789e-12  -2.5670887655542294e-04  8.4394923985195073e-09  -1.4949267555773368e-09  2.1957670621375830e-12  1.1327400017848693e+03  5.8485860557438202e-12  3.5198693036483195e-02  1.8570861525710320e-12  2.1796481083889685e-12  1.1531182733750056e+00  4.2067385791967044e-12  -2.0587560797734172e-03  3.9425408093619085e-12  6.4742765976009499e-12  4.7880836878603106e-07  3.9430853196740753e-12  -1.7930189978984821e-09  4.8765817106660921e-12  1.7866502238341107e-12  7.5975839591421967e-12  1.9906797471192115e-12  -1.0128300370960070e-09  -7.2571283650135591e-06  7.5496820064176294e-13  7.9007882084076274e-13  -6.7236686928718639e+00  5.3711081013815590e-08  3.2219955302773942e-12  4.8499474522725536e-12  8.2454396519226713e-12  2.8619026823526639e-03  1.8510959740312586e-12  7.7951836313980861e-13  -4.8099493343946472e+02  8.0698425205793919e+03  5.4413344780863666e-04  8.3282743018096188e-13  8.5439636390351181e-01  1.1347579255784260e-07  7.5811078702040098e-13  1.0516434549887947e-11  1.8927990295914906e-05  7.9827250983165523e-07  1.8568255250944703e-09  8.4270412692922690e+01  1.7196173446781239e-02  2.3791112775366110e-12  8.5000422935455053e-02  3.0955746550601940e-12  5.5653945765530653e-12  5.1955672227628608e-12  6.1911755791467692e+02  -1.2518967135375849e-05  -9.6591251792139323e-10  -1.2278383953525429e-10  1.4879919435563304e-12  1.4021384141001995e-12  1.6167865391100397e-12  5.7335379546780467e-12  -4.2144020335831772e-08  7.1423662605853405e-12  3.1618947143831008e-12  4.5844128137946050e-12  3.1379260284700940e-12  1.3312622403312629e-12  1.5369352018403036e-12  4.3003802647543390e+00  4.0835405523287926e+00  7.7404523463987851e-02  2.4985747770918689e-12  1.4439176168017176e-12  2.6511815443195768e-12  1.2510636910763308e-12  1.8597174116845633e-03  -1.1230697267648933e-05  4.0352264782820792e+04  1.2284827138734201e-12  7.2751005395846119e-05  1.6182402726605035e-02  4.4884850390520368e-12  -1.4764000717187526e-11  3.1438378826584790e-01  5.3702351062699102e-12  4.3281775339494949e-12  5.4551377706933914e-06  -1.0570817833450139e+01  3.7007090235243405e-04  2.1973987669504187e-12  8.3614853280008715e-11  2.8472435231127182e+01  4.0040014025260743e+03  2.0440673067068712e+01  -2.1281925475280517e-06  -2.8779334281994772e-10  7.2371958262734170e-12  4.1311875745904076e-12  2.3203717810842857e-12  2.4162092940609566e-12  4.1776364254829736e-12  -1.1053691915061949e-02  8.7566496065624739e-03  8.0551217665516560e-13  1.1474044393876203e-08  6.2979747527387158e-12  7.1126961904614201e-13  3.7633940608373999e-06  7.2746707292017946e-06  -3.1216329585600800e-09  4.6422814280770237e-12  7.9414097204960089e-12  4.1029436861560536e-12  -6.2366984672114457e-04  4.9001617787667045e-12  3.3671942635348542e-12  1.1380965064273055e-10  -2.2738289142768308e-08  1.1560680898213609e-01  1.0965207206326446e-11  -5.6117844209594592e-07  8.4231018472681946e-12  6.5470212345191375e-12  7.4285204152515959e-12  6.9833301194696291e-12  1.2147434754765254e-12  1.2971140892116791e-12  7.4071878220265539e-13  -4.7878862484350608e-11  3.8418576856859239e+01  1.8449675874117544e-12  5.5453293913261338e-12  2.9282485470003655e-07  9.0635892759024320e-12  1.3376769622588569e-12  5.6004794322433993e-12  -1.1071016406945737e-09  2.5033636668716003e-12  2.8634773051316471e-12  4.0247797659300098e-12  3.3154062762705011e-12  1.1762347699441799e-12  2.7407474274362320e-10  1.2524060468950886e-12  1.2969501805506716e-12  8.4699153411298598e-13  5.4352765705981219e-03  7.5049095219943837e-02  1.1973980716395024e+03  -7.2958900589616571e-02  5.2170821882111298e+01  -2.6383385073138503e-10  9.9199575823068130e-12  3.2972694069907612e-12  -5.5580379609256660e-09  6.8880841529282343e-07  2.0547680064152491e-12  -3.6382591199928825e-10  7.9545346213165731e-12  4.1838781544952200e-02  -3.6634164174970682e-04  9.2378088222023480e-03  5.1174966304077434e-03  1.0876477069942994e-04  1.2107691365656646e-12  8.3670705976142564e-04  1.3371646543010535e-03  7.6529929605048125e-13  3.3534366129756000e-04  7.9084672420509007e-13  7.7781113802106880e-13  2.5111315129102768e-12  8.2776162753704829e-13  5.7315840128385402e-12  9.6833339555215965e-12  1.1287198145282877e-03  7.3216388030224916e+04  7.6881444532667479e+02  5.2133675135149797e+00  7.6053696928015681e-13  7.5799267476765072e-13  2.5751054506146757e-12  5.9287549663976861e+03  1.0237859068058695e-12  -2.2664799744572904e-06  6.1836904833159929e+02  2.7993874817756421e+01  1.0508159271757190e+01  2.1337673875436150e-01  -8.7897897728354425e-10  -3.3464531108251096e-03  2.5412976094450640e-12  2.6936693350157264e-04  3.9202848932543865e-12  1.7175827485978481e-12  3.3706034684884590e-12  1.3613133045895483e-08  2.4533679244388348e-12  -1.0206794191285145e-07  5.1663943509848008e-12  1.8215191785077648e-12  3.8256134536416237e-12  1.1949336241881979e-02  3.0712341224841075e-12  1.9087080300169323e-12  1.7634068738500153e-01  2.7928981624446077e-12  -5.3346350882901134e-10  -2.0082342135205225e-02  8.5194784466586357e-12  3.1435111881586358e-12  -1.1048369309260102e-10  1.6316676826699534e-12  1.1318992732025669e-12  8.5221436510243420e-12  3.7384172312177872e-12  3.7633080558655066e-03  7.7576111077348253e-12  5.8660748864337879e-12  4.4190806889439469e-12  1.6341069921301884e-12  3.7865200461727176e-12  7.4450564990712634e-08  1.0365006789415941e+02  4.9821599909061604e-12  6.1458575353588693e-12  6.1701694187445313e-12  -3.1131020087137843e-11  3.6724884651973909e-12  -2.6425657553259142e-08  2.5574387466205194e-12  1.1578872744247921e-12  -8.9520520353613415e-13  -6.6601014240630949e-11  -1.0909065706133678e-08  2.3866395243718594e-04  4.8633243157410463e-12  1.8913324307065562e-06  -1.3817890716386162e-05  5.0312953556119468e-07  2.4651817693192754e-12  6.3132845121828007e-01  4.6226995452206629e-12  7.7011478027703326e+00  2.1404845672166368e-12  6.3149562981062276e-12  5.5540105571511747e-12  5.2076125747957209e-12  -2.4734518310520992e-05  2.9999883122460538e-12  1.0501084832706331e-01  1.3135041541901201e-02  3.1959985787891974e-12  3.7090512905696363e-12  -1.6906338365822754e-11  -1.0346035779206887e-08  -2.0938728609673693e-11  4.5113036189072764e-12  1.7097313347296750e-02  -1.3048211278602689e-12  2.1594916352370930e+02  2.3028705111625700e+03  9.2883228574573537e-12  2.2819983525535024e-06  3.6548852322665071e-12  3.8009664258152193e-12  1.6312441271822543e-12  1.0898976708633056e-12  1.1265355185549366e+00  1.1100871466638880e-12  1.1539608078133862e-12  1.8560701643880334e-01  7.4614996302081071e-01  6.5382222538736356e-01  1.9356627881204334e-12  2.0351776897759363e-12  1.6347362933613714e-12  2.7248390735285714e-07  -6.8033570988923606e-07  -1.3222023890099400e-09  1.3134603216126624e-12  1.9370281515868216e-02  5.2638647709265544e-03  2.0215880695233627e-08  3.9826341443268908e-12  7.6994039781276094e-12  7.1373426945591968e-12  6.4616764640424818e-12  6.7039160841154724e+00  4.3984909397797444e-12  -6.1162535593661342e-06  1.9733321877981759e+01  2.9617995171148316e-12  1.1591478963404170e-12  1.1058494929561842e-12  1.0408427207064623e-12  -1.4493268990796702e-09  2.3155058022787278e+00  1.7251103192310666e+01  5.0111900694851079e-12  1.8141034116263754e-12  4.9575437618302729e-12  3.3712673750191856e-12  -7.0984411954573898e-05  -8.7913520581241731e-04  -2.2710831683262648e-05  1.8716983290760319e-12  8.6769485301707186e-12  1.6377771834210832e-12  3.3065961470453522e-07  -7.2131688834721572e+01  1.0970130657586055e-12  -1.2282350864479576e-01  -4.9756786353770252e-03  2.2577386662640083e-12  2.4653188682575971e-12  2.6648007491848460e-12  4.2427991010854669e-04  7.5386352529214910e+03  1.4308117021563093e+05  9.7437964116600685e-13  1.5261666009176557e-12  8.8423616236699435e-08  4.4280334603788412e-12  4.3201168907723146e-12  2.0426022286344328e-12  3.6119727089745594e-12  9.7631607903576673e-13  1.2057686568205118e-11  5.7015942511634293e-12  4.6196938998030821e-03  8.1375548676665295e-08  1.5453958093975795e-03  -1.6095021793405858e-07  -1.3667312445051481e-04  4.3471924195548740e-12  2.1618310688460183e+03  -1.3855805236554219e+04  9.7797712854499520e-13  9.9475719171464020e-13  3.0707852532855986e-05  2.3343067523690784e-02  8.0743620340551840e-13  2.6736080992444162e-12  1.9886830078450864e-12  5.8112557136855134e-12  9.9954749363495029e-13  5.0377752960569864e-12  2.6033679946523857e-12  1.2151419993635046e-01  1.2798316018343718e-02  5.2451105978112272e-12  2.2358294469643006e+04  2.6530150090781315e-09  1.6994920838617047e-12  9.0780003952101235e-12  1.6501377340020810e-09  6.7221779742703742e-12  4.2352270112730087e-07  -2.6537590257263471e-06  -1.0885696855188250e-10  -8.7815132618886137e-09  -1.4553228827955514e-10  2.7266920793402465e-12  -2.1668949802799155e-07  -1.7951199909447810e-07  -2.8726179460788571e-09  -2.3525431191275047e-05  6.0503979088386492e-03  1.4562688343127561e-12  -1.6399346743075636e-07  6.5557881805089603e-12  -1.0828237470379579e-10  4.3146072001511333e-02  -2.2547509765622811e-01  4.0792070429670841e-09  1.8274667867610852e-12  4.9890531617638273e-12  4.4589002666564893e-12  1.3790715083299624e-12  -5.6097776550522353e-08  1.6941058927728991e-04  2.5886726655678729e+02  2.7937635242384740e-12  2.0469296918425826e-12  6.0240143174650169e-13  2.1170057178424361e-12  1.2180012313481084e-09  -1.9338778769048093e-01  -2.2090144147993830e-06  1.0469171767090060e-12  6.9521521039191656e-12  6.6768654314491134e-12  7.1928873238301252e-12  1.8068337983305054e-12  1.3390986559698487e+02  7.7422036780855223e+01  3.6119033864575799e-12  -1.9712090182824340e-06  -1.1788203581931918e-03  1.0428395046930947e-03  1.6823623487820648e-10  1.0520060138081226e-09  3.0396049193168553e-12  -3.1684685691412768e-10  -5.9336918754178847e-02  9.2742729049650460e-02  1.1366910448586154e+01  3.6769989770119844e-12  2.8385336747344319e-12  2.4404762846274332e-12  9.2160278846754010e-12  5.0573190073419647e-10  2.1341045121223983e-03  2.1026174208142429e-02  2.4603123171729595e-12  6.5110987511929080e-12  1.2756669799323359e+00  5.7714566923214026e-12  -6.9131184986710080e-11  8.9095097269462093e-12  1.4935664826997896e-12  4.7715044079115449e+02  -6.7067476337514090e-11  3.5003537871551573e-12  9.3504916118679025e-13  -6.4268945034796739e-08  4.0856539380982684e-12  5.7344912459356744e-12  8.1320623023534065e-12  1.5680812952483675e-12  -6.5550984154561970e-09  2.1457659161161837e+02  -7.0902243867824253e-09  1.1974742406100337e-12  1.6151904383293923e-12  4.3663000167380137e-04  6.5112609126853337e-12  -5.0990052159554512e-05  1.3656623495019125e-09  -7.5182985887085918e-01  1.4659292885584694e-11  4.7381917443949606e-12  -3.0817660476121432e+02  2.1756220373161788e-12  2.2948415265204719e-12  -6.7715534839542260e+00  1.5507082194858817e-02  -1.6651484894495655e-03  4.7676489346512921e-12  -1.1213953805563729e-04  2.9194214264638953e-12  9.1062437086251571e-12  7.8088046163177368e-12  7.0533564427927952e-12  6.0715574718274253e-12  6.0736060474686518e-12  2.5863646935325308e-09  -1.1001600929219703e-07  2.8693384738597154e-10  -5.3764165817579124e-11  1.7955785801364967e-03  1.4499550683896150e-12  1.3830032763990744e-12  4.2664735091238380e-02  5.8306636303782060e-03  7.4423623972058669e-09  2.2020346438293414e-11  7.4726061878797375e-12  7.8073008316926327e-05  3.2340543412591749e-01  -5.9979626114167418e-03  5.3652789306361810e-12  2.1403392510053489e-12  5.0871236425630484e-12  7.8188567368396336e-13  1.2633469199203805e-12  3.0092594429371476e-12  1.8999578222358494e-12  2.8503036026207148e+01  1.9105787565754487e-12  2.6783104576707043e-12  4.5749583519465656e-12  -4.2439106289939634e-12  -3.4531721799559308e-10  8.1968466308869578e-13  1.0540627014498093e-12  1.3885823087973976e-03  8.2332368023067914e-12  6.0194247034059096e+01  1.5429891410470555e+02  3.5400625077986939e-12  1.0840772586546245e-12  7.9736522418615002e-12  -1.6323717825689335e-08  8.0357131824570253e-12  -2.3318104752029626e-03  2.6911575235584982e-12  2.3380628261808303e+02  4.6153662457116633e+00  4.5424698475625309e-03  4.4813807735362239e-03  7.2953093306940164e-12  9.0857424515522681e-12  5.3258131697502119e-12  1.3825951347989405e-12  7.7057881934987263e-02  2.7022145585742963e-01  3.7821340066496787e-12  3.4573193144101944e-12  3.0256813398445704e-12  4.5804707770974389e+00  1.9750793918081418e-12  2.1428073929015342e-12  6.7450046680328438e-12  8.0370816402370260e-13  2.2085911308831382e-12  2.3163933076465754e-12  2.7547513923558945e-12  9.6773392178631103e-13  1.3448412707928502e-12  1.0044497064716695e-12  8.4241344111273425e-13  9.1076937849662930e-04  2.1177784915201465e-12  -1.5455458746568589e+00  6.8375193100359319e-02  4.4006660300030701e-12  -1.7933012577280228e-11  4.3882543078106449e-12  4.1583946460718128e-12  9.5144736373851338e-13  1.3907333598702581e-12  6.0230909516916123e-12  5.6453075792413283e-12  1.3938563675410858e-12  3.0048200099944644e-01  -3.8883927055393986e-05  8.3425857024775613e-12  2.7847077073224064e-12  5.7951214044316768e-03  1.6056225044412006e-12  -4.1290964745899831e-08  1.0433111272669736e-06  -1.2385216780752462e-07  4.5124026259432099e-07  1.0517569645743372e-12  3.7561989657972303e-12  5.2657665547746902e+01  1.0196509252110372e-12  5.7840377133624075e-02  5.1137848238280777e-12  4.0780947174034406e-12  3.1905030015317969e-09  8.9925393850419220e-13  4.8943828371709784e-12  8.6177231988462442e-13  9.7737251042631873e-13  -2.8672498253828848e-02  -9.2049114382907060e-01  1.1161340811918456e-09  1.5108461021004745e-12  9.9464757974786184e-13  1.3136627644847427e-02  3.4085875761573080e-12  -1.0312980516893172e-10  4.7725960045610369e-12  7.5883823272635070e-13  2.2546553278569708e-11  1.4851622549137878e-02  7.0043031802812016e-04  3.7756765644720264e-12  1.1506683485487660e+01  6.5609241171981074e-12  7.4783650864444624e-12  1.5257786498721984e-12  3.1811835654963624e-12  -1.0790670430505709e-08  4.4838330103165481e+03  1.1533095849565145e-11  1.2755967110902179e-11  -1.4866853953407590e-12  -4.2416609903758217e-09  -2.6590577212714088e-09  9.9606396785295793e-13  7.7942600485953621e-13  1.1268998764377039e-11  5.7102961994000614e-07  6.0164730673357801e-12  4.3899758397271273e+02  1.2731957415439337e-06  3.4309977807956932e-12  1.3191341820673595e-12  7.8519142924110580e-12  1.7424890728807369e-12  1.5831314203688217e-12  1.3973888843958453e-12  2.2015862058964441e-08  1.5921560030200488e-12  6.9122727252813460e-12  2.3008372843286325e-12  5.4125367058306431e-12  1.1997335105570072e-05  5.4966913529080051e-04  -5.7181675230722869e-08  -4.1854023997324785e-08  2.1247363192389891e-12  6.1692031530004291e-12  1.1919343029738464e-12  3.8586838610066383e-08  2.3359938263078122e+00  1.0105187755739480e-12  3.5222506010613353e-10  -1.8405603642385759e-08  4.1530599340855108e-12  2.3575824925712581e-12  -1.5045750931175903e-04  7.5618618445777549e-12  8.1112140216254343e-13  -3.7990724261576119e-10  1.7478797726396814e-12  2.4776618033672346e-12  8.0268809803732994e-12  1.9631235751295813e-12  -1.5706873363788421e-06  6.8770391012492166e+02  9.4634341958504106e-02  3.9396937362725098e-01  -5.6905114834452065e-05  2.1733028847882722e-12  4.0051036246981971e-12  4.5760277984856437e-12  6.3519642131467561e-08  1.2642551127198864e-09  2.7934996176907639e-12  1.2172375048036106e-12  9.6745269873776967e-13  1.0733538180159965e+00  1.0388258667282642e+05  4.3336509751013655e-06  9.6365365567756328e-13  7.0294634744830850e-12  7.7240552863341041e-13  6.7963349522424054e-04  8.0814776556995348e-13  2.3940002359362847e-02  6.0457449387632360e-03  3.2242580495021586e-05  2.5048918038653446e+03  1.1343534866113563e-03  7.5887732146401378e-13  3.6379923033987600e-12  4.4315005016072302e-12  7.7800156434316228e-13  7.6929749534901255e-13  7.6087656711721466e-13  1.6805729670511412e+03  3.2770408369254641e+05  1.9318769727321522e+05  2.0483645363291169e-04  -9.4598907822054190e-01  8.6532904435046241e-12  2.8701422025289599e-12  1.8161713376811736e+01  3.8052326088425280e-03  -1.1553262301121108e-09  2.4108779970922742e-01  8.4316113731922667e-13  1.5975011578539722e-11  5.2958332868237390e-12  -2.1055235395020245e-06  4.5522662851513521e-04  -7.8402148146458694e-12  7.3703829871565234e-13  6.7254991916839451e-13  6.8676213553072481e-13  2.5712744292880983e+04  1.1952472052291280e-06  -5.5487248460371211e-03  7.6087189966820248e-13  7.6353576100691948e-13  8.2818628446333183e-13  3.0813714440531670e-12  2.1501198155556958e-05  -2.5617494355664097e-07  2.4722240166927859e-03  5.3484053540951983e-12  1.3702120845814617e-04  5.5247613259423048e-10  2.9290357900909136e-07  -4.9576887278962660e-08  1.5377780291497596e-12  -1.1031299917146245e-10  -5.4693235975800502e-08  -9.5932039252738053e-03  3.7340634678262634e+00  -1.3089662629093044e-05  7.5448057714837877e-12  2.9926844974595013e-02  1.7260967342869833e+04  7.8221939278194213e+03  2.0753270402903840e+03  3.7291209672765130e+04  3.1531542808087905e-02  -4.0773709314746232e-04  1.5018846028555667e-12  -2.0133493728304936e-12  8.4847474059258974e-04  1.8251927272355757e-12  -1.3684728611445044e-07  9.8893894858223023e-13  6.8369694854757845e+03  7.2353502478450591e-04  3.4581711826703559e-09  -1.3404329253014961e-02  3.6897026756975857e-12  6.4438160633647670e-02  5.4719449631591477e-12  -2.1398769324801616e-06  -4.6790504436996936e-07  2.9985369293405274e-12  1.3805822736038268e-12  -5.1324693151628168e-06  1.9178657132191917e-12  1.6901718557837736e-12  4.7975182317272188e-05  4.1735596650483977e-12  -3.2158640139706294e-11  3.8963319089290727e-12  -1.8560606558049404e-10  1.5332267457480821e-12  1.0440985066504858e+01  2.1978443407165922e+00  7.7379149363289222e-11  2.9228427748126364e-12  2.7744159699725916e-12  2.2973402384846516e-12  2.3579676831755621e-12  2.0602704589928117e-01  6.3162328025560120e+04  4.6776009203016561e-07  6.5407041827900400e+01  6.3004534174622434e-12  3.0510766243804625e+01  1.9497466959125127e+01  4.9389724355051848e-07  5.2632125222310335e-12  3.4563097416274242e-12  3.2591298582815465e-12  1.5471631171136204e+00  -8.9736739539204123e-06  1.4856281201697109e+03  2.3107250043545721e+02  2.4098897766737605e+02  8.8142535015583012e-12  1.8984007932964945e-12  1.6320389090677613e-03  1.7685986846037615e-04  1.0197401339840005e-01  3.4605605226210084e-01  6.9432001495389514e-02  9.4785467548210555e-11  4.7377025886048808e-12  5.4464908761365129e-12  1.5621077468589087e-12  1.0522632788904270e-12  1.7867202585688086e-12  -2.5729428007769492e-06  -1.9808883168606069e-03  1.8851922584523385e+02  4.5713005482228085e-12  2.6210031731268253e-12  -4.1888941064885955e-10  6.1343063357348998e-12  5.8063067734493105e-12  -6.1880630477747887e-05  3.1147995342701478e-12  1.9954640769242281e-12  1.7781562916743573e-12  9.7705581635968440e-13  2.1044274116653617e-12  8.2051420647211628e-03  -9.3679004258170517e-01  4.6897779202319574e-11  5.6714462815006786e-12  -2.5021613999283765e-01  -4.3633083420510359e-13  2.7090417476975926e-12  3.6994962282508652e+00  1.3738930323352970e-12  6.9344347063817524e-12  -4.0048026999406673e-09  -2.2422142793494329e-01  4.9365840966302382e-01  3.5170092088136609e-02  3.2242666607335286e-03  2.7995724156009237e-12  4.6752404502681802e-03  2.7446188406008927e-12  1.4236907754036448e-12  1.2066093122296794e-12  6.2928137419951624e-01  4.8455122125152835e-12  1.1531975835707018e-12  2.266