<?xml version="1.0"?>
<VTKFile type="UnstructuredGrid"  version="0.1"  >
<UnstructuredGrid>
<Piece  NumberOfPoints="6486" NumberOfCells="12696">
<Points>
<DataArray  type="Float64"  NumberOfComponents="3"  format="ascii">0 2.5 0  0 0 0  2.5 0 0  2.5 2.5 0  1.25 0 0  2.5 1.25 0  1.25 2.5 0  0 1.25 0  1.25 1.25 0  0 0.625 0  0.625 0 0  0.625 2.5 0  0 1.875 0  2.5 0.625 0  1.875 0 0  2.5 1.875 0  1.875 2.5 0  1.770833333333333 0.7291666666666666 0  0.7291666666666666 1.770833333333333 0  0.9375 0.625 0  1.875 1.5625 0  0.642361111111111 1.163194444444444 0  1.341594827586207 1.883979885057471 0  0.46875 0.46875 0  2.03125 2.03125 0  0.3626104797979798 1.513178661616162 0  1.381740196078431 0.4564950980392157 0  0.9375 2.172619047619047 0  2.172619047619047 0.9375 0  2.096354166666667 0.4036458333333332 0  0.4036458333333333 2.096354166666667 0  1.684027777777778 1.163194444444444 0  0.3418803418803419 0.8693910256410255 0  1.642742622813391 2.162164207604464 0  1.275619849389031 0.8465650753054845 0  0.9136284722222221 1.434461805555556 0  1.732437511238546 0.3406962303960658 0  0.9714402568595876 1.029779313093998 0  1.52281746031746 1.485615079365079 0  2.1875 1.71875 0  1.06819722569879 0.2997236128493951 0  2.136114211309524 1.303478422619048 0  0.3125 0 0  0 0.3125 0  2.5 2.1875 0  2.1875 2.5 0  0.3200021620376328 1.192323085056694 0  0.6738456129277992 0.8304377375553881 0  1.757891808928991 1.861952730357003 0  1.5625 0 0  0.9375 0 0  0.3125 2.5 0  2.1875 0 0  2.5 0.9375 0  0 0.9375 0  0 1.5625 0  0.9375 2.5 0  2.5 0.3125 0  0 2.1875 0  1.5625 2.5 0  2.5 1.5625 0  0.7448220909826522 0.3003573636608841 0  1.027298850574712 1.871151477832512 0  1.331260495098891 2.197262878816185 0  1.207917681892289 1.582765010956622 0  0.4339993447432606 1.801186844743261 0  0.6337298768939392 1.443093039772727 0  2.049851190476191 0.6826636904761904 0  0.6584821428571428 2.219122023809524 0  1.89575676467455 0.9798457973793544 0  1.437570562095628 1.059380588255917 0  1.502090052505845 0.6987070896496241 0  0.2040860661083546 1.705323965099331 0  0.2083333333333333 0.46875 0  0.5070952039991439 0.2211150679997147 0  0.6916302856529919 0.5813591430410241 0  2.265625 1.953125 0  2.2265625 2.2265625 0  1.886424081252096 2.243391360417365 0  1.40625 0.202164758520858 0  0.2269345238095238 0.2269345238095238 0  1.152730869673694 0.5225850378741401 0  1.885631899587912 1.312095130148776 0  1.614808884009367 0.9049784971014416 0  1.890095442220658 0.5126535558463003 0  2.323168682795699 0.46875 0  2.268811725689575 0.2304742875213018 0  0.6002389442105756 1.967426444210576 0  0.1768313172043011 2.03125 0  0.2311882743104251 2.269525712478698 0  2.03125 0.176831317204301 0  2.280262553344767 0.6954945504579233 0  1.979219539285994 1.809922269642997 0  2.336309523809524 1.09375 0  1.09375 2.336309523809524 0  0.9314042474388009 1.662973812215543 0  0.1634067999087722 1.40625 0  2.337090640094896 1.40625 0  1.141616997467638 2.069311773587991 0  0.46875 2.338939559681489 0  1.542440307908715 1.734944797244472 0  1.556713687786879 1.956977865354753 0  0.8264238995344066 1.975424467820646 0  1.466326331454725 1.275271369760862 0  1.655675324257095 0.5444159974393489 0  0.3385416666666666 0.6479255698005697 0  0 0.78125 0  0.5236073939200119 0.984090461540625 0  2.091665741047893 1.519793517904215 0  1.71875 2.5 0  0.5356538886262603 1.623137930505009 0  0 1.09375 0  0.1932884281517095 1.015625 0  0.8569313582417669 1.2198915584249 0  0.8876981284879677 0.8329884081524883 0  1.115618488474214 0.7219586973356271 0  1.186950366204949 1.043465130075318 0  2.057459118787237 1.110823087309335 0  1.830651283878689 2.049810069572418 0  1.689107969301489 1.367247437031697 0  0.4921048768039656 1.298643370653124 0  0.8213975694444444 2.336309523809524 0  2.03125 2.5 0  1.049729400480002 1.283723261332814 0  1.308101375801673 0.6489479469700392 0  2.5 2.34375 0  0.4968777175037714 0.7562964879736076 0  1.40625 2.5 0  1.501347663534097 2.307027627307738 0  1.602813712048603 0.1926218191360736 0  0.8393082906308107 0.463778306132633 0  1.682663349152719 1.598471865581041 0  0.7774174680851571 1.560004941327907 0  1.554204170364662 0.3898593897892066 0  1.842184459051087 0.186443880058197 0  1.358107417651776 1.696381759610015 0  1.18859291992392 1.77598670078022 0  0.1875331222687418 0.7609599743339348 0  1.339536743965101 1.422080365801479 0  0.7788179348750389 0.9955343414928611 0  0.9062978492805438 0.1919636509126373 0  1.256007360640958 0.3160320559396114 0  1.09375 0 0  1.174986727221844 0.1594990293443933 0  2.34375 1.796875 0  2.318026474511116 1.589177949022232 0  2.34375 2.5 0  1.672742954892153 2.332882724550692 0  0.2683637361947215 1.874801596909639 0  2.174770749820102 0.5581009131310781 0  1.443279522965991 0.8870068372898454 0  0.3385416666666667 0.3571428571428572 0  0.78125 0 0  2.060421048269335 2.314363248763811 0  1.088078737088509 0.8967352118723447 0  1.087825368444708 1.454931510884769 0  2.018308232129541 0.8548495425854904 0  1.943987311736842 0.3246298523011434 0  1.71875 0 0  1.85337849796276 1.144833312386208 0  2.3486328125 2.1044921875 0  1.407588788651747 2.042968789119587 0  2.336309523809524 0.865366648092144 0  2.34375 0 0  2.5 0.15625 0  0.15625 2.5 0  0 2.34375 0  0.1638044648294291 1.242263417405867 0  0.356216654757926 1.032569427322806 0  0.3188217956111817 1.355736727000647 0  0.5924956460852111 0.36112522004736 0  0.6594216488965849 0.1603472116132387 0  1.841804599497131 1.72214349266521 0  0.15625 0 0  0 0.15625 0  2.115898634821499 1.894570904464496 0  0.7821877980253907 0.7129993435924866 0  1.003820447087786 0.4516053462784233 0  0.477562948779147 1.138333049293613 0  0.719493678605015 1.305655360135975 0  0.9772457618587566 2.020350128938537 0  0.8764738248887107 1.826219722709673 0  1.254787875123819 2.339010653832026 0  2.343597354852534 1.249982759769001 0  0.78125 2.5 0  0.46875 2.5 0  2.5 1.40625 0  1.09375 2.5 0  2.5 0.78125 0  2.5 1.09375 0  2.03125 0 0  2.5 0.46875 0  1.40625 0 0  0.46875 0 0  0 0.46875 0  0 1.40625 0  0 1.71875 0  0 2.03125 0  2.5 1.71875 0  2.5 2.03125 0  2.005424054645407 1.653223486966518 0  0.1538730573856537 1.559850281736677 0  2.33984375 2.33984375 0  1.166539506212474 1.922878979538754 0  0.3914885633949916 1.65887232812171 0  0.5795503163042564 1.766243562569382 0  0.399533125920212 1.946786875081388 0  0.7866324979014098 2.127719094551316 0  0.3654683023546834 0.1495701132219454 0  0.1527388747131078 0.6116379440619215 0  2.013737577140188 1.391056634712135 0  1.17635437372994 2.213329084238133 0  1.737118141866284 1.010577140843115 0  2.200707118087222 1.164723314085963 0  1.697018908736685 1.993548551451517 0  0.5387621649009668 0.6070503962352419 0  2.032805785855952 0.5330427622570983 0  1.082699501358059 1.667818725183932 0  1.503819781540653 0.5468420196858188 0  2.015409142866072 2.175941657590429 0  1.752057611265444 0.869642097111018 0  0.612251684107783 2.356045720700959 0  1.902817102342857 0.6607642211999982 0  2.159616561739693 0.7867739969338844 0  0.5120038350106624 2.197302352398502 0  1.888200216011548 1.919501662489862 0  1.495909909726654 2.16028358757309 0  0.489139876703609 1.443203008943564 0  0.8819175670410521 0.3301172743913011 0  1.882591144370812 0.8155965192707721 0  1.133979796994841 1.172526771862882 0  2.206217447916667 2.084147135416667 0  2.20361328125 2.36279296875 0  1.395746985657004 1.556054166359645 0  1.704383111516207 1.734750450338683 0  0.9575737847222222 2.36274223823052 0  1.035150984253136 0.1302833343179028 0  1.383966125325753 0.7651479963479179 0  1.64003252158672 0.6824316405528895 0  2.22550785055421 1.487078576356817 0  1.760964431499756 1.48495222505201 0  1.276460980673788 2.004207003584658 0  0.1341477688427096 1.828777507920502 0  1.542261434180652 1.155296658359034 0  1.334627911613854 0.9696897472490321 0  1.30794231473696 1.119420615785191 0  0.7028260459857245 0.4438906910721139 0  1.625757433094055 1.84268057552138 0  0.9818707849053143 1.165603626132254 0  2.0086489901463 1.243134585689553 0  1.934584460420609 2.374094051915812 0  1.798434376789567 2.38671361912528 0  1.206314791201715 1.382064292497919 0  0.6333752893366955 0.7023738550008095 0  0.7796219811205605 1.42573253164258 0  1.564399711917382 1.026040828857629 0  0.3385416666666666 0.4889012896825397 0  0.1041666666666667 0.390625 0  0.989112246382566 1.543537365516289 0  2.025724425454636 0.9846960595520872 0  0.6602885475034063 2.086117390485779 0  1.607130551925032 1.267198646640915 0  0.1317864544877056 0.8896173683400176 0  1.755387840017567 2.230364320056445 0  1.301540702984401 0.1216289692748247 0  1.433170657577442 0.3331052752740999 0  1.500459610550388 0.113513924782439 0  0.6494291520606965 1.029586599619295 0  1.010146149868299 0.794897284196169 0  0.3700844198238017 2.235390157870766 0  0.3360891767780704 2.36656279435396 0  1.876856241037701 1.437150669863757 0  1.778674102957329 1.245979347269706 0  0.5472829890977179 0.1005517127039925 0  0.4669074189005698 0.3416784232954367 0  1.472765289289269 1.850899166481903 0  1.555853593327178 1.608452097912802 0  0.6708955559113426 1.646561631116984 0  0.8164699620322933 0.5924479455478063 0  0.3167738989468366 1.758696809749795 0  0.2788007305565096 1.605499483471246 0  0.7821720982350511 0.181524936294752 0  1.376812251214195 2.313340247908297 0  1.785652202614777 0.5962261755537186 0  1.761467296310972 0.4679567244718574 0  2.2265625 1.8359375 0  2.3828125 1.9140625 0  0.5279531607054191 2.071552361614785 0  2.397573269551114 0.234375 0  2.383578172599618 0.3589298466020009 0  0.1024267304488855 2.265625 0  0.1164218274003825 2.141070153397999 0  0.2696857594953064 2.135405441512016 0  2.164961300137334 0.1375322943529536 0  2.137757548369486 0.2724194778647587 0  2.238873711826398 0.3626419179496562 0  0.1001414910226386 0.234375 0  0.2176339285714286 0.3478422619047619 0  0.2503620791333544 0.1061694061057066 0  2.336445461915368 0.1250451055247424 0  0.2154004640409726 2.3918124
[...]
<PointData  Scalars="f_49-2"> 
<DataArray  type="Float64"  Name="f_49-2"  format="ascii">2.9212463055075148e-16  1.3973935019773945e-16  9.7349951244717310e-18  9.0016950852329329e-16  8.2713176761488314e-17  1.2313177422208785e-17  3.1720655802106339e-16  3.7061642187045853e-16  3.0644270804144645e-15  2.1324076205246886e-16  1.2229019367949105e-16  3.0419786197539146e-16  3.9090541393928536e-16  9.0344498572700210e-18  3.7045126300049855e-17  4.3248236494375455e-17  1.5013698486077041e-15  5.0835962037697394e-17  4.0116464828778031e-16  1.3505908910819682e-16  4.5900110950468534e-16  1.2603624764033455e-15  2.3663517630298782e-15  8.7576934407815277e-16  2.2690387561450487e-15  3.9533451200045579e-16  7.7426709671673819e-17  3.7092856683530916e-16  2.5921215563612802e-17  2.5736405095684838e-17  3.7350152417653815e-16  8.5213417493887446e-17  4.4483338988100679e-16  2.4311866668063197e-15  1.0410252777384394e-16  2.0860396901376159e-15  4.7654224761871599e-17  3.5693318203260737e-15  2.5793490829841706e-15  1.3749198214312912e-16  9.7432747301737769e-17  3.1369728372798970e-17  1.3300876909539805e-16  1.1451815296084258e-16  3.4009615189277126e-16  2.5332279217935533e-15  3.6272570696146814e-16  4.9017919736453160e-15  3.5198628290129613e-15  5.7318347864625934e-17  1.0392090230902510e-16  2.9177863132196475e-16  1.8936307841784574e-17  9.6750450823113840e-18  3.1849480358854389e-16  3.9774353103461912e-16  3.0953013676411480e-16  8.6550939788987898e-18  3.5611606344087734e-16  4.2041232300629338e-16  1.3993958891145094e-17  1.1613006873115763e-16  4.7509997490681992e-16  4.9486912654791613e-16  4.4449940087656423e-15  3.9870968727068694e-16  4.1450921139198022e-16  3.0036733327144793e-17  3.5810952744919968e-16  4.3470597288649518e-17  1.7029438458106169e-16  6.9426162999637703e-17  3.9988178033103027e-16  2.7717902509774988e-15  1.2593329705319619e-16  4.6328534397963951e-16  3.8941863349325208e-16  1.7341189398736202e-15  3.3431571790320683e-15  7.1789597429408797e-17  1.1539467019034278e-16  9.3186264023859102e-17  6.6400684130005248e-17  6.3401181859988964e-17  3.8610872480979778e-17  1.4820789578700701e-17  1.6886937382619157e-17  3.9000823402975031e-16  3.7745383594703467e-16  3.4263616843384553e-16  2.8922769386586349e-17  1.7650810811632623e-17  1.1806802902457695e-15  1.7828894374155639e-17  3.4631015288469352e-16  6.3864874785853143e-16  3.8727246802345559e-16  2.0132760344191602e-17  4.2030369034649643e-16  3.3322487491493568e-16  4.5912135506672825e-15  3.8332934923005880e-15  3.9138441344398380e-16  8.9391733255370153e-16  5.8071931274383787e-17  2.9361574787195033e-15  2.7051142885631466e-16  1.4708573836747092e-15  6.2622363889051231e-17  8.0322057886766892e-16  3.9992837862382527e-16  3.4887716342875970e-16  3.3131201240164086e-16  4.2760440826716124e-15  1.4123921957070506e-15  1.1005299325772024e-16  1.1127119295516441e-15  3.3433244660922176e-17  3.8700515028437264e-15  3.6527531684191354e-16  3.8422714685552510e-16  3.4106726945736510e-16  2.4239276523123946e-15  5.4161507430701639e-15  8.2764687760875458e-17  6.3385951054488299e-16  4.6400036501814102e-15  3.2888523773933594e-16  6.2898211212486709e-16  5.5870253751527444e-17  1.1042729947199540e-16  1.9992993782940059e-15  4.6211380979570803e-16  6.3538277863788292e-17  3.8788832224235445e-17  4.6894867033722417e-15  1.7166755727057203e-15  2.7517765075337025e-16  3.9796567666400799e-15  5.3287550263539160e-15  1.0668797290545584e-16  8.5267828426559584e-17  9.4006213304479207e-17  9.0979996732799923e-17  7.5396251882394929e-17  2.8998583576569354e-17  1.7641320181065959e-15  1.3679613419224475e-15  3.9425205931090552e-16  2.1613490281432878e-17  7.8851787505892434e-17  6.4511730777335520e-16  1.1280164992435029e-16  3.0721199835163466e-15  5.3418452239200032e-16  4.5384568274975050e-15  3.5008192976803684e-17  3.3867939241191100e-17  4.7328544616901220e-17  4.8883519255304643e-17  5.7954731018096865e-16  1.4710204873565455e-15  1.5683939668333086e-17  1.4394621260273223e-17  9.4043050420828149e-18  2.9091468069178607e-16  3.1858772486624792e-16  3.7094547855638254e-16  3.4531246670395739e-16  3.8312730019494909e-16  1.2033812142046872e-16  1.2032472017240017e-16  1.6034984475213237e-15  1.3777510810470550e-16  1.3896099527494811e-16  7.9773502256033300e-16  9.2440994879269214e-16  1.0169401827875472e-16  4.2447572682976502e-16  1.0159411460882952e-15  3.9168095234972684e-16  4.0969612578566103e-16  3.5636841598421812e-16  1.9178201249086411e-17  3.0676481870441868e-16  2.9537505748636112e-16  1.3169505948926679e-17  3.1302626801052012e-16  9.7948252487208390e-18  1.0986525816412295e-17  2.8806438276890515e-17  8.8181391197136779e-18  6.6618062558538017e-17  1.2843573447824387e-16  1.6199972695957602e-16  3.8690398966411477e-16  3.9966323790548533e-16  3.7847828600319274e-16  1.9372765721193553e-17  1.2950275102077623e-16  3.1038331182034305e-16  3.9752731143397569e-16  1.4228269445311222e-15  7.0232541757606596e-16  4.0009041718155064e-16  4.0006450314225018e-16  3.8985654868801887e-16  3.7504425090264172e-16  1.3051423171722634e-16  2.4424056106585743e-16  5.3833094617914150e-17  3.7834695129332979e-16  5.4965092403974999e-17  2.5540771792746870e-17  4.2620087546949343e-15  2.6682384897016138e-15  3.0401489508176948e-17  1.6358517001073447e-15  6.8626313753834015e-17  3.1110582569711031e-15  5.3003224496468541e-17  3.3249612450173325e-16  3.9967001484392105e-17  2.4694768927992330e-17  3.5968391366677867e-16  2.7485788745470467e-15  1.2767618857551747e-15  3.9104376726514270e-16  1.0828149812660866e-16  4.2366494964354656e-17  3.5479882666865312e-15  1.2268808365712906e-15  2.3427412472765110e-15  4.6672934508295791e-15  3.1328668894536181e-15  3.3750295445252138e-16  9.9327909750132140e-17  7.8749668199659752e-17  5.9413996308071523e-17  3.2114946002144054e-17  5.9870052423053299e-16  8.2907959728487953e-16  3.9696841186861886e-16  1.8004343145965321e-16  1.5110110686912459e-16  8.3806953289977362e-16  1.2630821526973191e-16  4.4868284388730237e-15  5.3247705520270411e-15  4.0262072914816199e-17  2.7422911563081136e-15  1.7487315224599462e-15  5.0695801881356186e-15  3.2120964057823249e-15  7.5062931178113024e-16  7.7855981196431888e-17  3.4286972368546392e-15  7.4409418848145653e-16  1.7654057909955109e-15  3.4175599754571239e-17  3.7745271366670172e-16  3.0539312635165335e-16  2.9992178882223030e-16  2.6693709967376204e-15  7.9238441926007614e-17  7.2455140077240907e-17  6.2633085775138614e-17  3.2511924257330922e-15  3.7242200218124165e-16  3.5092737874938794e-16  3.2433366819857959e-16  1.5098802011397803e-16  8.2705709713252217e-17  1.2491416512423539e-16  1.3778275794475370e-16  4.2519471558745656e-15  3.4441164680651130e-15  4.0223433672199854e-16  1.8868953099011978e-16  3.9943285562305476e-16  3.9872653714449412e-16  1.1422979095747903e-16  4.1740696857437286e-16  4.8799692987013503e-17  4.7553770132097350e-17  2.4796286039099429e-16  1.2357841814280259e-16  3.7846668160350215e-16  1.1033427474159995e-17  1.2715165722965887e-17  3.4136778640319730e-16  3.6579767233859213e-16  3.6556199802007287e-16  2.1834856707392843e-17  2.3662900234682758e-17  1.9537605555185593e-17  8.4634929519457695e-17  2.0070887736985013e-15  1.3408827129650351e-16  1.3325801306799834e-17  3.1636725775507882e-16  3.6649989862553378e-16  1.3491179562599015e-16  4.8377646541032495e-17  9.8669579278093416e-17  9.1419832671554846e-17  8.3840175087233968e-17  3.8530411495918021e-16  1.2437000624564948e-15  4.0004319205612996e-15  3.8694673199402782e-16  3.3905016304477751e-17  1.3545349038628610e-17  1.3238040361746624e-17  8.0725720031213021e-16  3.1738790684561601e-16  3.9571644844614626e-16  3.9452805378623088e-16  6.7101216379556092e-17  5.8089523440791668e-17  1.1146555764487427e-15  4.0856021692532905e-17  2.1198322153878178e-15  4.2141627810530972e-16  5.4531666420101689e-16  2.3375846715952474e-17  1.0963661630817093e-16  2.4179886656350922e-17  4.6865373376646772e-16  3.5652124565881230e-16  1.4505244159139760e-17  2.4504209382107331e-16  5.4208763698714095e-16  3.6028799085822135e-16  1.8068957208250746e-15  3.2799705701470964e-17  3.3155312016410216e-16  3.9184731085960461e-16  3.7930321291597290e-16  1.6423437502450739e-17  2.4226983318349345e-17  5.3928454960100883e-15  5.2925677362909367e-17  5.8785248910726090e-17  3.6457869359356507e-15  4.2274905741392586e-17  2.2149265249277149e-17  3.1924279832591529e-15  5.4300572749642765e-16  3.2537248058087713e-16  4.1952792335268842e-15  6.2301006734670591e-16  3.9583926761581578e-15  2.3104934853828290e-15  5.6066813870136785e-17  3.9951553651666471e-16  3.6110595914864716e-16  1.5820606604213531e-17  1.4445516586998978e-17  3.4121826500134858e-16  3.0999240754549410e-16  1.1288984548024264e-15  1.7047313047645807e-16  3.6895183650552130e-17  7.6290696583275442e-17  2.8080237726132382e-15  6.3948961764195190e-17  3.8103143013715761e-15  3.8305343353178402e-16  3.9956578492784681e-16  2.5252824276734656e-15  3.9249702445485640e-16  1.2129222927220816e-16  2.1922597016737671e-15  4.7816500403527840e-15  3.3679982417798377e-15  3.1763925005507053e-16  4.0681631276667403e-16  4.4728608822215614e-15  4.4125622620895604e-16  2.7705988549981867e-15  1.5690391632283110e-15  3.6697777801182548e-17  1.9876933740778338e-15  8.7954858054790475e-16  3.0774676186239662e-15  4.3996842261570180e-16  3.7994691371950057e-16  1.9751917314448156e-17  8.3818249718220294e-16  8.4815146717890106e-17  1.2142544346895012e-16  3.6022293260819427e-16  3.0569871146810939e-16  3.6858614413804380e-15  9.9366192369162519e-16  2.5686663750177287e-15  5.4928775694806670e-17  5.3951220915969468e-17  4.3838786892434366e-15  1.7327102030598395e-16  3.2877357585686073e-16  3.9889944095396773e-17  2.9956179107984594e-17  5.1442895123083576e-15  3.1116309606838048e-17  6.7281775278779171e-16  3.9970861591819321e-16  4.6736706323462671e-15  1.1751663341650342e-17  9.0533444963815552e-17  9.1377698098751788e-17  1.4086589464919872e-16  2.0822088491009075e-17  4.0069379415571463e-16  3.9749950969800875e-16  1.4957719299819258e-16  4.6664397660620744e-15  9.9437272034138047e-16  2.9712727977150605e-16  4.5578599676988465e-15  2.5859843543259202e-15  2.1172707345923676e-15  1.3290920877084901e-15  3.9941441752682222e-16  3.6887310465540312e-16  3.9769627036468795e-16  1.7603328331526424e-15  3.8436547589364254e-15  3.0818639989996313e-15  1.1702999685691438e-16  5.1424282246447473e-15  3.2498776016917530e-16  3.4627478713336213e-16  2.8419752181527013e-17  8.4315154637068152e-17  3.8808121208145527e-16  7.0975977753646829e-17  2.1496088763856804e-15  1.1574250327985027e-16  1.7481192989604377e-17  3.9929877307194592e-16  1.6050974107392605e-15  4.2049057836757230e-17  2.0023756331794999e-15  5.3586578971933139e-15  3.4460630109607341e-15  7.5514919568909894e-17  1.0359873977487544e-16  1.6466835474524624e-17  2.7901069104857652e-15  3.4743121389140074e-16  6.4686623781841659e-16  2.8996565356348054e-16  2.0892639772652214e-17  3.0931250839327264e-16  1.4623195608181977e-16  2.9477736105128865e-15  5.3443744088414226e-15  2.7437303773418890e-16  4.6873362505995848e-15  6.3733295319742915e-17  3.7450214372835462e-16  2.3415669640882878e-17  2.6777680475919845e-17  3.8509433730316428e-16  3.5343090102648710e-16  6.4048455316367457e-16  6.3200144004150543e-17  5.3558272668974521e-16  3.3041282503145330e-17  1.1350808732583442e-16  1.1245669987107415e-16  9.1289688976061535e-17  7.9415923882152689e-17  7.8650463231967230e-17  2.9578193120536654e-15  1.5658549846915908e-15  4.9255216589554244e-15  1.2819388540153255e-16  2.9449106394160444e-16  3.2983474604156651e-15  2.5161174100726265e-15  3.4514032681624043e-16  5.3246755228932671e-16  5.3408601330821412e-16  1.4476245503192033e-16  9.6164800039141606e-17  1.9141287628618186e-15  3.7009328464199945e-16  4.2135636327026718e-16  7.0394479821454119e-17  1.6707848761598698e-16  7.2907251973517917e-17  9.6948598723813278e-18  2.2879709165617237e-17  4.7171011086358818e-17  3.5625506059209440e-15  3.9153753208032348e-16  1.7944035249973895e-15  3.3366730188569456e-17  8.7361797523536097e-17  1.7700328247595954e-15  1.3006205050981035e-16  8.7184326993628124e-18  1.1877416933262228e-17  3.2936857484104317e-16  1.0396149480520996e-16  3.9669340101939902e-16  3.9798787584216426e-16  4.9601213783728923e-17  2.8681648763919135e-15  1.0163814901291212e-16  7.2844552625172598e-16  1.0288830157669257e-16  5.1747183913438596e-16  3.9469072969988324e-17  3.9718313387250364e-16  3.8711258859129289e-16  3.1444258240213896e-16  3.1870404903083625e-16  9.4592403341932088e-17  1.1149588716624238e-16  1.4325295762763149e-15  1.7177661955885518e-17  3.6331184028901975e-16  3.9729182563442019e-16  5.6384610965113027e-17  4.8922805530588241e-17  7.1772474978784472e-16  3.7857707840709559e-16  3.7810379954874255e-16  2.6416605802216558e-17  8.5584072259291047e-17  9.4276629096139005e-18  3.1182051027192520e-17  3.0425481881660028e-17  3.8534055831461956e-17  5.4981015929120557e-17  1.9009993635138799e-16  3.0645387841992546e-17  9.7459871234053838e-18  3.8259158766371697e-16  2.4423273961163554e-17  3.4780109497426948e-16  3.5777025673196462e-16  6.2844649733017573e-17  1.7814851770215000e-15  1.1311731485532928e-15  1.3816938779178799e-16  4.6010922177299924e-16  1.1102239759994284e-15  9.4787809154230135e-17  9.7480097642636618e-17  1.5239654982492147e-17  3.5795838940229611e-16  4.4765016026856144e-16  1.0656985665741494e-16  7.8336256349848561e-16  3.5026061213340119e-16  1.7325578361700781e-17  2.7598539908967657e-16  2.7049820039839476e-15  5.5840351773693755e-16  7.3716917491552252e-16  1.1114349645489121e-17  1.0311916912996785e-15  3.0023504371532851e-16  1.1953149357334214e-17  3.3038193321700332e-16  6.3814639699763704e-17  5.4636154549174147e-17  1.0564216458497541e-15  8.3436938099255653e-16  3.8700240737995499e-15  2.5799803579057164e-15  2.5677286473424736e-16  3.0614804876709532e-16  3.9680051304307479e-16  3.7016077093909807e-15  2.3124447315469427e-17  1.2364930116664677e-17  4.0539685435301052e-16  4.3533595750148324e-15  1.2349117412970653e-16  6.4454726978345959e-17  7.2194631562063415e-17  3.7275647328001376e-15  3.2293215764924520e-16  4.9334911731396469e-16  4.0650123663359593e-15  3.7560671655780456e-16  5.0169383322222264e-16  9.7024112737858544e-17  2.5733463064148764e-17  4.3421957096262533e-17  1.2531478937284484e-16  3.8334180583902467e-16  1.1668610308968439e-16  1.2233870312043175e-16  1.1846361404359416e-16  2.1655156436432839e-16  1.2111964590749905e-16  1.3884171651176912e-17  1.0471815490786150e-17  5.0738480757382686e-15  3.0631660581068584e-15  2.8325015496343569e-16  3.9018344042842171e-16  1.4187898505023040e-15  2.7981357296358130e-15  2.0668759799501553e-17  1.0074232976468395e-16  5.1396447541929935e-16  1.8322880641920487e-17  7.2676715782314503e-16  1.6407883408095751e-15  2.8872591620431352e-15  2.3833708029286641e-16  7.7544645158593598e-16  7.3590456198381215e-17  3.9291020138119716e-16  3.4787200095414581e-16  1.3860132450132067e-16  1.4028613134420068e-16  1.4506977340894116e-15  7.5672155032986378e-17  1.3424754065581026e-15  1.3195723908350020e-16  3.6546987219069353e-16  1.0648443509066072e-17  1.0435623246141724e-15  2.7502566613490165e-15  5.7846798661978015e-17  1.4567244025832302e-16  5.5653213540296189e-16  9.7726817733831431e-17  1.9660688820944243e-15  1.3305127381230698e-16  1.8024368012346999e-17  2.8606916652784716e-17  1.0172266283579724e-16  2.8649342859018446e-17  4.0796625773635512e-15  4.0002342855676045e-16  3.7169170495767127e-16  3.8464615376631162e-16  4.2877562733850152e-16  3.0253780442569307e-15  4.7354720908484878e-17  2.5462445437987728e-15  5.3604832909927058e-15  3.5998775429286060e-15  9.8812449355072314e-17  1.9477990638705274e-17  1.5509512237477790e-17  3.6679737091889027e-16  3.7025691221756801e-16  3.5849905442799837e-16  1.7385630278856597e-17  8.7137409849080932e-17  2.2198007665460748e-15  3.0772608477022147e-16  2.6060623910716470e-15  3.0741104810117882e-16  2.9263728108103014e-16  3.1903107550509741e-16  3.9954296678402352e-16  3.0660759717190166e-16  1.6130663403694057e-17  4.0860618171650676e-17  5.1883685477286628e-17  1.1536775187654907e-17  1.2910544710531950e-17  1.3465917917349914e-17  3.3589084325475151e-16  3.6118729029355151e-16  3.7945949879608939e-16  3.1463507862056703e-16  2.3660910625165156e-16  1.0826404140385011e-16  3.2960106182929175e-17  3.8610169092279558e-16  2.8982120566936487e-16  1.3602344964164929e-16  3.3518949151578353e-16  8.8556224222336697e-18  1.2599761660280237e-16  6.2930377503917681e-17  1.3159618674913338e-16  1.2435166608605928e-16  1.1751340145611000e-15  4.7959277380668830e-16  8.1615242624604881e-16  1.2803495077776578e-15  3.9439492473517726e-16  3.5223340413466735e-16  1.8939210698241788e-16  2.6371318099943436e-17  2.1173173364698214e-16  8.6980400968222514e-18  4.1690368514404140e-17  4.1025326865905214e-16  1.2788811459355908e-15  3.2126937953387925e-16  7.1199360469537845e-17  3.3530277604466876e-16  7.3957752743197458e-16  4.6543208473528795e-15  1.8529412837789580e-15  1.1492889600981708e-16  1.2906235821087714e-16  4.5296117005890515e-15  1.9683278197366111e-16  3.8280507263455798e-16  2.2558278984212876e-15  9.7539259478995966e-17  3.8144692514415164e-16  3.9222790866359335e-16  3.9745116702324463e-16  3.9928094128877964e-16  3.8029620852409137e-16  2.4345829089653147e-16  7.2041245657294324e-16  2.2638701701645288e-17  4.4660336393515444e-15  4.1193895243991669e-16  2.7296596133874378e-17  4.8771092048045016e-15  1.6318641188056735e-17  3.9596804521433248e-16  3.9948058362520144e-16  4.5503332490897990e-15  3.7605207291630427e-16  3.9928462970160122e-15  3.9062451957457584e-16  7.2605664319444078e-17  4.4702380664626264e-15  5.4337428915772068e-15  3.6058687309663379e-17  1.8772967266668010e-17  3.0098329760462707e-15  2.6124854875920161e-17  2.1033273940979169e-17  9.2285542996360729e-16  6.2736901520561406e-17  2.2992888950798698e-16  1.4194748833010522e-16  2.3154642210112677e-16  4.7967833347263484e-17  4.0071159192194562e-16  4.0074512886749230e-16  2.1182521578959053e-15  7.4103217858538858e-17  4.9924188064094623e-17  5.3417226443538488e-17  3.9591113505204464e-17  3.7039318373115387e-16  3.8709660995444174e-16  5.3757151414103391e-16  3.9984305962505648e-16  8.5063730583428536e-17  3.9549072408129053e-16  3.9269374995579311e-16  4.4544838487022830e-16  9.4430649967474039e-17  4.6749346742546712e-17  4.1433739933194723e-17  3.7597345519263258e-16  5.0314137820577914e-16  3.9853887853871694e-16  3.9967853085574481e-16  4.0032112379337977e-16  9.5509370516567837e-16  2.2093049017521827e-17  3.6180672095313538e-16  3.6677779846767523e-16  3.5822587135332703e-16  3.6125893673903265e-16  3.4927125720064215e-16  1.0431126546291054e-15  1.4927449197996064e-15  6.9318330165248083e-17  3.6719364272813509e-17  1.2838844432953322e-17  2.8200384449400085e-17  9.1068685039774523e-16  4.9447432469646095e-16  3.6649425231196952e-16  5.3144797927320209e-16  3.0166295342065848e-17  1.1754535708688573e-15  7.7310925380074564e-17  1.8312596613438018e-15  2.6994802197515126e-15  3.6491194532375486e-17  2.6074706727735652e-15  3.5035485829415015e-15  1.5761928571244729e-16  2.6581532622933276e-17  3.0823070252635432e-16  3.9103794102098428e-16  5.0333823937503427e-15  1.2187322105012014e-15  3.7789612645811521e-16  3.9868081934776098e-15  4.1236123447087340e-15  3.9826550332456488e-16  1.5267729367842694e-17  8.9682475503168835e-17  3.1183068679690955e-15  3.9459803531485303e-16  3.8632901495989824e-16  3.4591989189994297e-16  3.1907238017843175e-16  3.4136713074626521e-17  3.0777839132880704e-16  3.5194762330119356e-17  1.5107913358570824e-17  2.8182321896931264e-15  3.7095210879499052e-16  5.8380276714367741e-17  1.8851751101513052e-15  2.5941452856640132e-17  2.6820846276149476e-15  3.3986394753012975e-16  3.5259023989373140e-16  3.6481527152379483e-16  3.3680984351757157e-16  1.6095989115053