<?xml version="1.0"?>
<VTKFile type="UnstructuredGrid"  version="0.1"  >
<UnstructuredGrid>
<Piece  NumberOfPoints="6486" NumberOfCells="12696">
<Points>
<DataArray  type="Float64"  NumberOfComponents="3"  format="ascii">0 5 0  0 0 0  5 0 0  5 5 0  2.5 0 0  5 2.5 0  2.5 5 0  0 2.5 0  2.5 2.5 0  0 1.25 0  1.25 0 0  1.25 5 0  0 3.75 0  5 1.25 0  3.75 0 0  5 3.75 0  3.75 5 0  3.541666666666667 1.458333333333333 0  1.458333333333333 3.541666666666667 0  1.875 1.25 0  3.75 3.125 0  1.284722222222222 2.326388888888889 0  2.683189655172414 3.767959770114943 0  0.9375 0.9375 0  4.0625 4.0625 0  0.7252209595959597 3.026357323232324 0  2.763480392156863 0.9129901960784315 0  1.875 4.345238095238095 0  4.345238095238095 1.875 0  4.192708333333333 0.8072916666666664 0  0.8072916666666665 4.192708333333334 0  3.368055555555555 2.326388888888889 0  0.6837606837606839 1.738782051282051 0  3.285485245626782 4.324328415208927 0  2.551239698778062 1.693130150610969 0  1.827256944444444 2.868923611111111 0  3.464875022477093 0.6813924607921316 0  1.942880513719175 2.059558626187995 0  3.04563492063492 2.971230158730159 0  4.375 3.4375 0  2.13639445139758 0.5994472256987903 0  4.272228422619047 2.606956845238095 0  0.625 0 0  0 0.625 0  5 4.375 0  4.375 5 0  0.6400043240752655 2.384646170113389 0  1.347691225855598 1.660875475110776 0  3.515783617857982 3.723905460714006 0  3.125 0 0  1.875 0 0  0.625 5 0  4.375 0 0  5 1.875 0  0 1.875 0  0 3.125 0  1.875 5 0  5 0.625 0  0 4.375 0  3.125 5 0  5 3.125 0  1.489644181965304 0.6007147273217681 0  2.054597701149425 3.742302955665024 0  2.662520990197781 4.39452575763237 0  2.415835363784578 3.165530021913244 0  0.8679986894865213 3.602373689486522 0  1.267459753787878 2.886186079545454 0  4.099702380952381 1.365327380952381 0  1.316964285714286 4.438244047619047 0  3.7915135293491 1.959691594758709 0  2.875141124191255 2.118761176511833 0  3.00418010501169 1.397414179299248 0  0.4081721322167092 3.410647930198662 0  0.4166666666666666 0.9375 0  1.014190407998288 0.4422301359994293 0  1.383260571305984 1.162718286082048 0  4.53125 3.90625 0  4.453125 4.453125 0  3.772848162504192 4.48678272083473 0  2.8125 0.404329517041716 0  0.4538690476190476 0.4538690476190476 0  2.305461739347387 1.04517007574828 0  3.771263799175824 2.624190260297553 0  3.229617768018734 1.809956994202883 0  3.780190884441317 1.025307111692601 0  4.646337365591398 0.9375 0  4.537623451379149 0.4609485750426037 0  1.200477888421151 3.934852888421152 0  0.3536626344086022 4.0625 0  0.4623765486208503 4.539051424957397 0  4.0625 0.353662634408602 0  4.560525106689535 1.390989100915847 0  3.958439078571988 3.619844539285994 0  4.672619047619047 2.1875 0  2.1875 4.672619047619047 0  1.862808494877602 3.325947624431087 0  0.3268135998175443 2.8125 0  4.674181280189791 2.8125 0  2.283233994935276 4.138623547175983 0  0.9375 4.677879119362977 0  3.08488061581743 3.469889594488945 0  3.113427375573758 3.913955730709506 0  1.652847799068813 3.950848935641292 0  2.932652662909449 2.550542739521724 0  3.311350648514189 1.088831994878698 0  0.6770833333333333 1.295851139601139 0  0 1.5625 0  1.047214787840024 1.96818092308125 0  4.183331482095785 3.03958703580843 0  3.4375 5 0  1.071307777252521 3.246275861010018 0  0 2.1875 0  0.386576856303419 2.03125 0  1.713862716483534 2.439783116849799 0  1.775396256975935 1.665976816304977 0  2.231236976948428 1.443917394671254 0  2.373900732409897 2.086930260150635 0  4.114918237574474 2.221646174618671 0  3.661302567757379 4.099620139144836 0  3.378215938602977 2.734494874063393 0  0.9842097536079312 2.597286741306247 0  1.642795138888889 4.672619047619047 0  4.0625 5 0  2.099458800960004 2.567446522665629 0  2.616202751603346 1.297895893940078 0  5 4.6875 0  0.9937554350075428 1.512592975947215 0  2.8125 5 0  3.002695327068194 4.614055254615477 0  3.205627424097207 0.3852436382721472 0  1.678616581261621 0.927556612265266 0  3.365326698305438 3.196943731162083 0  1.554834936170314 3.120009882655813 0  3.108408340729323 0.7797187795784133 0  3.684368918102174 0.3728877601163941 0  2.716214835303553 3.39276351922003 0  2.37718583984784 3.551973401560441 0  0.3750662445374837 1.52191994866787 0  2.679073487930202 2.844160731602957 0  1.557635869750078 1.991068682985722 0  1.812595698561088 0.3839273018252746 0  2.512014721281916 0.6320641118792227 0  2.1875 0 0  2.349973454443689 0.3189980586887866 0  4.6875 3.59375 0  4.636052949022233 3.178355898044465 0  4.6875 5 0  3.345485909784306 4.665765449101383 0  0.536727472389443 3.749603193819277 0  4.349541499640203 1.116201826262156 0  2.886559045931982 1.774013674579691 0  0.6770833333333334 0.7142857142857143 0  1.5625 0 0  4.120842096538671 4.628726497527622 0  2.176157474177018 1.793470423744689 0  2.175650736889416 2.909863021769539 0  4.036616464259081 1.709699085170981 0  3.887974623473683 0.6492597046022868 0  3.4375 0 0  3.70675699592552 2.289666624772415 0  4.697265625 4.208984375 0  2.815177577303495 4.085937578239174 0  4.672619047619047 1.730733296184288 0  4.6875 0 0  5 0.3125 0  0.3125 5 0  0 4.6875 0  0.3276089296588581 2.484526834811734 0  0.712433309515852 2.065138854645612 0  0.6376435912223634 2.711473454001295 0  1.184991292170422 0.7222504400947201 0  1.31884329779317 0.3206944232264773 0  3.683609198994263 3.44428698533042 0  0.3125 0 0  0 0.3125 0  4.231797269642997 3.789141808928991 0  1.564375596050781 1.425998687184973 0  2.007640894175573 0.9032106925568466 0  0.955125897558294 2.276666098587227 0  1.43898735721003 2.611310720271951 0  1.954491523717513 4.040700257877075 0  1.752947649777421 3.652439445419346 0  2.509575750247638 4.678021307664052 0  4.687194709705067 2.499965519538002 0  1.5625 5 0  0.9375 5 0  5 2.8125 0  2.1875 5 0  5 1.5625 0  5 2.1875 0  4.0625 0 0  5 0.9375 0  2.8125 0 0  0.9375 0 0  0 0.9375 0  0 2.8125 0  0 3.4375 0  0 4.0625 0  5 3.4375 0  5 4.0625 0  4.010848109290813 3.306446973933037 0  0.3077461147713075 3.119700563473354 0  4.6796875 4.6796875 0  2.333079012424948 3.845757959077508 0  0.7829771267899832 3.317744656243421 0  1.159100632608513 3.532487125138763 0  0.799066251840424 3.893573750162776 0  1.57326499580282 4.255438189102632 0  0.7309366047093668 0.2991402264438908 0  0.3054777494262156 1.223275888123843 0  4.027475154280377 2.78211326942427 0  2.35270874745988 4.426658168476266 0  3.474236283732569 2.021154281686229 0  4.401414236174444 2.329446628171927 0  3.39403781747337 3.987097102903034 0  1.077524329801934 1.214100792470484 0  4.065611571711903 1.066085524514197 0  2.165399002716117 3.335637450367864 0  3.007639563081306 1.093684039371638 0  4.030818285732145 4.351883315180857 0  3.504115222530889 1.739284194222036 0  1.224503368215566 4.712091441401919 0  3.805634204685714 1.321528442399996 0  4.319233123479386 1.573547993867769 0  1.024007670021325 4.394604704797005 0  3.776400432023095 3.839003324979723 0  2.991819819453308 4.320567175146181 0  0.9782797534072181 2.886406017887129 0  1.763835134082104 0.6602345487826022 0  3.765182288741625 1.631193038541544 0  2.267959593989681 2.345053543725764 0  4.412434895833333 4.168294270833333 0  4.4072265625 4.7255859375 0  2.791493971314009 3.11210833271929 0  3.408766223032414 3.469500900677365 0  1.915147569444444 4.725484476461039 0  2.070301968506271 0.2605666686358055 0  2.767932250651506 1.530295992695836 0  3.280065043173439 1.364863281105779 0  4.45101570110842 2.974157152713635 0  3.521928862999512 2.96990445010402 0  2.552921961347576 4.008414007169315 0  0.2682955376854191 3.657555015841003 0  3.084522868361304 2.310593316718068 0  2.669255823227708 1.939379494498064 0  2.615884629473921 2.238841231570381 0  1.405652091971449 0.8877813821442277 0  3.25151486618811 3.68536115104276 0  1.963741569810629 2.331207252264507 0  4.017297980292599 2.486269171379106 0  3.869168920841219 4.748188103831625 0  3.596868753579134 4.77342723825056 0  2.41262958240343 2.764128584995838 0  1.266750578673391 1.404747710001619 0  1.559243962241121 2.85146506328516 0  3.128799423834764 2.052081657715259 0  0.6770833333333333 0.9778025793650794 0  0.2083333333333333 0.78125 0  1.978224492765132 3.087074731032578 0  4.051448850909273 1.969392119104174 0  1.320577095006813 4.172234780971559 0  3.214261103850064 2.534397293281829 0  0.2635729089754111 1.779234736680035 0  3.510775680035133 4.460728640112889 0  2.603081405968802 0.2432579385496493 0  2.866341315154884 0.6662105505481998 0  3.000919221100777 0.2270278495648781 0  1.298858304121393 2.05917319923859 0  2.020292299736597 1.589794568392338 0  0.7401688396476035 4.470780315741533 0  0.6721783535561408 4.733125588707921 0  3.753712482075402 2.874301339727514 0  3.557348205914658 2.491958694539413 0  1.094565978195436 0.2011034254079851 0  0.9338148378011396 0.6833568465908735 0  2.945530578578538 3.701798332963805 0  3.111707186654356 3.216904195825605 0  1.341791111822685 3.293123262233967 0  1.632939924064587 1.184895891095613 0  0.6335477978936732 3.517393619499591 0  0.5576014611130192 3.210998966942492 0  1.564344196470102 0.3630498725895039 0  2.75362450242839 4.626680495816594 0  3.571304405229554 1.192452351107437 0  3.522934592621944 0.9359134489437148 0  4.453125 3.671875 0  4.765625 3.828125 0  1.055906321410838 4.14310472322957 0  4.795146539102229 0.46875 0  4.767156345199235 0.7178596932040019 0  0.2048534608977711 4.53125 0  0.232843654800765 4.282140306795998 0  0.5393715189906129 4.270810883024032 0  4.329922600274667 0.2750645887059072 0  4.275515096738972 0.5448389557295173 0  4.477747423652795 0.7252838358993123 0  0.2002829820452772 0.46875 0  0.4352678571428572 0.6956845238095237 0  0.5007241582667088 0.2123388122114133 0  4.672890923830735 0.2500902110494848 0  0.4308009280819452 4.783624996516437 0  2.104871305393774 4.438653689007242 0  0.2274454167838428 0.2274454167838428 0  3.446466574593436 0.4359605369011901 0  2.12354112127588 1.217588426759619 0  2.309175236825235 0.7888355970690434 0  2.556178570281936 1.054299163237582 0  0.578683248637
[...]
<PointData  Scalars="f_800-2"> 
<DataArray  type="Float64"  Name="f_800-2"  format="ascii">1.0058821128186202e-11  1.5021295523215701e-11  9.8214099887212949e-12  9.6562632569249446e-12  1.3420265072577573e-11  9.8205184192486723e-12  9.9375148493412202e-12  1.3470710367703700e-11  1.3352455557730848e-11  1.4580481692140265e-11  1.4558205764600147e-11  9.8847860725770976e-12  1.1842951917161714e-11  9.8165569577474990e-12  1.1781556127962752e-11  9.8379704422423720e-12  9.9216158633253646e-12  1.2082184445938822e-11  1.2163847241281687e-11  1.4072396105186388e-11  1.1799795419884796e-11  1.3666100752447822e-11  1.1841813427859179e-11  1.4719653002837377e-11  1.1179164396361938e-11  1.2849026760033870e-11  1.3110431357158800e-11  1.0985804193946216e-11  1.0878434015573300e-11  1.1102947504444069e-11  1.1244188985954498e-11  1.2345612092002398e-11  1.4221406834747327e-11  1.1005229076347521e-11  1.3375293115236304e-11  1.3048818382667774e-11  1.2183717180852188e-11  1.3905098535577070e-11  1.2699252328021571e-11  1.0851208924088858e-11  1.3812882607170189e-11  1.0998248602206531e-11  1.4884516655113268e-11  1.4890819713400928e-11  9.8405434156693021e-12  9.9333502523475144e-12  1.3607572237911755e-11  1.4308669825248441e-11  1.1851315938399416e-11  1.2639370635969375e-11  1.4057631129445383e-11  1.0010687989532911e-11  1.0825050718344836e-11  9.8074897128447494e-12  1.4101323308610428e-11  1.2710143940224077e-11  9.9222822100173580e-12  9.8187604741439189e-12  1.1028776919540062e-11  9.9321011028086670e-12  9.8246888538936687e-12  1.4391192337127268e-11  1.1886713606357951e-11  1.0894680577418061e-11  1.2686970149786123e-11  1.2065692347229227e-11  1.3037253995815032e-11  1.1251472859412157e-11  1.0820776295653814e-11  1.1730410777202963e-11  1.2990074562566178e-11  1.2817089084251735e-11  1.2331000401799443e-11  1.4760449360134289e-11  1.4705379167038098e-11  1.4461473859259072e-11  1.0601899130183302e-11  1.0552333872234339e-11  1.0756960987465729e-11  1.3050246065706762e-11  1.4923321841270012e-11  1.3645640842328139e-11  1.1774044065978401e-11  1.2528311235276400e-11  1.1733197932122519e-11  1.0388609703936764e-11  1.0567481027307795e-11  1.1583102045050561e-11  1.1378556747137353e-11  1.0637007294973657e-11  1.1309015024191652e-11  1.0518723471055409e-11  1.1461942483624002e-11  1.0351551017505409e-11  1.0464015866065991e-11  1.2464174480088804e-11  1.3109754996382391e-11  1.0351491676520971e-11  1.1294665037976449e-11  1.0415873623999308e-11  1.2271817642364597e-11  1.1640146693003198e-11  1.1571469757081225e-11  1.2906271745237298e-11  1.2400657141179747e-11  1.4554452815610041e-11  1.4360847172210461e-11  1.4020435241415560e-11  1.1154174806005760e-11  9.9280052026553050e-12  1.2563625822591208e-11  1.3805177646175035e-11  1.3972378681463863e-11  1.3550011080027219e-11  1.4132443955249997e-11  1.3724491243695685e-11  1.3561842074100298e-11  1.1236149164629516e-11  1.1352007925234879e-11  1.2330384530736531e-11  1.3370320111475443e-11  1.0432299059586395e-11  9.9236445753595030e-12  1.3429619586507872e-11  1.3301236667912187e-11  9.7899211267899815e-12  1.4409551723968912e-11  9.9374437524924820e-12  1.0555233538871311e-11  1.2537699318556985e-11  1.4242296843808143e-11  1.2297781384627991e-11  1.2740077228654585e-11  1.2674337325782849e-11  1.1864174785540049e-11  1.2386795289479444e-11  1.2150250416594732e-11  1.4392351105679697e-11  1.3037482360884270e-11  1.4031454958354311e-11  1.4119521274217285e-11  1.3404354125051444e-11  1.3752712568092519e-11  1.3580604983173067e-11  1.0347032180078686e-11  1.0420880731896093e-11  9.8702096861381029e-12  1.0454934558266250e-11  1.1843131470215473e-11  1.0855601778695947e-11  1.2979824697226348e-11  1.4839691785288829e-11  1.4329107062806626e-11  1.0521852579804566e-11  1.3778581503456161e-11  1.3010067037724228e-11  1.1350708151561547e-11  1.1564621151691318e-11  1.2221198845917051e-11  1.1859390655259854e-11  1.0314426691552456e-11  1.1376018736526434e-11  1.0341108591027520e-11  1.0323243160866626e-11  9.8218399369085166e-12  1.0076608946787282e-11  1.0531748859791905e-11  1.3493123884142050e-11  1.3928990933668700e-11  1.3235420506757937e-11  1.4605994788889081e-11  1.4513896324192898e-11  1.1855843608251189e-11  1.4980047974541945e-11  1.4975467501258278e-11  1.1053648283956641e-11  1.4313977765957528e-11  1.3945658977120171e-11  1.3717942129762957e-11  1.3356909778664396e-11  1.1446436066966785e-11  1.2011111174296535e-11  1.0451092406701689e-11  1.0327730884723377e-11  9.9363195616841200e-12  9.9145619314764466e-12  9.8254388948478268e-12  9.9214899084355478e-12  9.8089444905014165e-12  9.8122010284924821e-12  1.1311778300034168e-11  9.8244684758063476e-12  1.3041462677660484e-11  1.4743505293391195e-11  1.4757404933869680e-11  1.3102226716638802e-11  1.2288164816795976e-11  1.1339879911561190e-11  9.8311264645860626e-12  9.8417805602456663e-12  1.1412592380501889e-11  1.2718734337773289e-11  1.0180451430548479e-11  1.1735013817590799e-11  1.2464076880701488e-11  1.2174597030071118e-11  1.1648008909392376e-11  1.1110293248054753e-11  1.4844807263800227e-11  1.4598078975682088e-11  1.1387869975970717e-11  1.0863352403012065e-11  1.2191483444675946e-11  1.0785065815801645e-11  1.1533685839497901e-11  1.4607327374878477e-11  1.1299906209858500e-11  1.2448303160418588e-11  1.2807131629966665e-11  1.0928843705566687e-11  1.2141357727081439e-11  1.0404438160455026e-11  1.1700148693653366e-11  1.0910181921377944e-11  1.0918419822789180e-11  1.1581158314667056e-11  1.1005919385318810e-11  1.3028752330746922e-11  1.4168053808880054e-11  1.1758722107217749e-11  1.3583079100144023e-11  1.0730243764423400e-11  1.0319327426645366e-11  1.2748158674898679e-11  1.2129166595503850e-11  1.0357773446110565e-11  1.3874649498408343e-11  1.3119527930659730e-11  1.2448664769480231e-11  1.0718821464331763e-11  1.2124714286777618e-11  1.1488251123990029e-11  1.1979446271883425e-11  1.2724702893123172e-11  1.3239291698616486e-11  1.3295331227521868e-11  1.4456289390096688e-11  1.1971034438448666e-11  1.3686873642272201e-11  1.1394785645700080e-11  1.0330203936778317e-11  1.0284182519263020e-11  1.3193518928441882e-11  1.4478207802544127e-11  1.3072585600646422e-11  1.2667416905036633e-11  1.4759263250466952e-11  1.4831145830767116e-11  1.2775861395925149e-11  1.1333444608126289e-11  1.1228641046015790e-11  1.2552602507705125e-11  1.4185857566944286e-11  1.0790327594638912e-11  1.3300765982355040e-11  1.2980602149337257e-11  1.2806379176888373e-11  1.3936150881657197e-11  1.3934819628986103e-11  1.0745594990614760e-11  1.0327405920647517e-11  1.1796884213546857e-11  1.2083705984645246e-11  1.4657315028421543e-11  1.4746427292866116e-11  1.1950652022799033e-11  1.2515832556352562e-11  1.2507621227643136e-11  1.4281137597656987e-11  1.2188533427581882e-11  1.2603266457908988e-11  1.4332019403370480e-11  1.0529267713155308e-11  1.2039060061277764e-11  1.2110003081170586e-11  1.0725332063171967e-11  1.0223085363886657e-11  1.1275270829975897e-11  1.0144459182499898e-11  1.0199327808876665e-11  1.0758923606210004e-11  1.1032582236995828e-11  1.1061018394365076e-11  1.0898165634783675e-11  1.0979835603131967e-11  1.0660531290925874e-11  1.4949896061867083e-11  1.4884065433467646e-11  1.4930391652164834e-11  1.0348251965286027e-11  1.0352124536758542e-11  1.0835711264121701e-11  1.4984523249123578e-11  1.2203598902287788e-11  1.3833272458105090e-11  1.3636813107339883e-11  1.3366706424064025e-11  1.1529782374238284e-11  1.2438958956538483e-11  1.3748461071079166e-11  1.1646671164852053e-11  1.1608403800341114e-11  1.0227601837732559e-11  1.0185417313394051e-11  1.0177860519705856e-11  1.4602019490058251e-11  1.1805916026922088e-11  1.1796714737400963e-11  1.2732040757226193e-11  1.0868508342945849e-11  1.2707973980554524e-11  1.1868698989844602e-11  1.4212834047946479e-11  1.2427632980995000e-11  1.2177212038433083e-11  1.0878825918663354e-11  1.4200756914847557e-11  1.0708889405181792e-11  1.1135784899280668e-11  1.3724890013653321e-11  1.0184975754307868e-11  1.4476809948479750e-11  1.3423868262353728e-11  1.1198900529020612e-11  1.1348808765896465e-11  1.1439076028416363e-11  1.0197615891546980e-11  1.2992172169862899e-11  1.3294239062209308e-11  1.0084203263107104e-11  1.0625998630051139e-11  1.3887789798957982e-11  1.2432590108314763e-11  1.2397358767033016e-11  1.1098622115608511e-11  1.1998901619940838e-11  1.0089467060220422e-11  1.1332387197343336e-11  1.3052071697148172e-11  1.0267163527382777e-11  1.3336199628963522e-11  1.4396599049496520e-11  1.4673110146798924e-11  1.4651908221974301e-11  1.2399555408520295e-11  1.2505195329521987e-11  1.3644936897781769e-11  1.0082535780013676e-11  1.0082959312405539e-11  1.0180515820889520e-11  1.0359045927984933e-11  9.9319810930987494e-12  1.1478416829687316e-11  1.0998924256718411e-11  1.3091811479352755e-11  1.0177910398045099e-11  1.2731448125963556e-11  1.1214447734246920e-11  1.1300180419060972e-11  1.1718864342266006e-11  1.3139722598627797e-11  1.2926006441809024e-11  1.4821122105023647e-11  1.0812586374816342e-11  1.2476017798012986e-11  1.3745955871133138e-11  1.3550720202066958e-11  1.0187513181824131e-11  1.4134343053901304e-11  1.4151637681378692e-11  1.4269996235428225e-11  1.3976394815670393e-11  1.1490031016335908e-11  1.3302409237307754e-11  1.2156089807026755e-11  1.2729736662185155e-11  1.1597635286413957e-11  1.1154794903581738e-11  1.0536999257042100e-11  1.2794026033032675e-11  1.3404934290568400e-11  1.4582553010403241e-11  1.0797559480507158e-11  1.4144499880153847e-11  1.4088144260681753e-11  1.0883390657337368e-11  1.2899700944902930e-11  1.2449332318375451e-11  1.0501377416285100e-11  1.3184085992742892e-11  1.4715804819150424e-11  1.4012279047084144e-11  1.1546301350064807e-11  1.1036854325874238e-11  1.2857126983067096e-11  1.1092046182413033e-11  1.0327235898495769e-11  1.2760537575802836e-11  1.4285707962448471e-11  1.0058215859935592e-11  1.3561177790541331e-11  1.3462770299950524e-11  1.3612310870418881e-11  1.0816680651301686e-11  1.2313540524567191e-11  1.2765508134221770e-11  1.2032586540702123e-11  1.4547501220796907e-11  1.3811506915055481e-11  9.8948794575810554e-12  1.3428665824221497e-11  1.1673953083209626e-11  1.1713524632148504e-11  1.0782547820588349e-11  1.3221015061373973e-11  1.3539639527208165e-11  1.1899194388323529e-11  1.2069531830222244e-11  1.1616572754450216e-11  1.1364270361717163e-11  1.4446531817553991e-11  1.2946805801534125e-11  1.0176111751428050e-11  1.0577190825051833e-11  1.1292606510091747e-11  1.3391070492871098e-11  1.1490020142309376e-11  1.3061118873824670e-11  1.1315440915976461e-11  1.4392502212748837e-11  1.0558485747368154e-11  1.2249897858943180e-11  1.3802439817826949e-11  1.1941368465328773e-11  1.0104944956391625e-11  1.4159254729368615e-11  1.2324524780592007e-11  1.3059356762259124e-11  1.4010014549897719e-11  1.0576255646401258e-11  1.2422979321635783e-11  1.3817227560790493e-11  1.0770109377419332e-11  1.0332687537697107e-11  1.0672968682284586e-11  9.9182942883353791e-12  1.3937415588494973e-11  1.4419739296248610e-11  1.3248152635721557e-11  1.4334842629165378e-11  1.2216297894035430e-11  1.2606256758458794e-11  1.3423690105677209e-11  1.1072745047448754e-11  1.1165217790295023e-11  1.3204421716854590e-11  1.0666343972685351e-11  1.4053268245234057e-11  1.2618258023853441e-11  1.4524888394212438e-11  1.1590928004771564e-11  1.4336647464338568e-11  1.4146692574070608e-11  1.3605736798841322e-11  1.3207347254945499e-11  1.3208320246564060e-11  1.2128075644162446e-11  1.1888147624646742e-11  1.2599256746087805e-11  1.4754777116460357e-11  9.9516944674561630e-12  1.0617095054937368e-11  1.0558148819335291e-11  1.0633831417382360e-11  1.3596689129277253e-11  9.9326600210919188e-12  1.4367400160691753e-11  1.3766787940202671e-11  1.3565436855545702e-11  1.1057922867214806e-11  1.2874185092355511e-11  1.2898490141473318e-11  1.1117990907756710e-11  1.2771071064516434e-11  9.8058081043855370e-12  1.0385912850016642e-11  1.1679762043027960e-11  1.0981915714782829e-11  1.1757189187170575e-11  1.0962888973921204e-11  1.1450063233535092e-11  1.2529422090634445e-11  1.3479949890570514e-11  1.4819693245533596e-11  9.8193830650255636e-12  1.0099885159215940e-11  1.0200637723179647e-11  1.4045351942859546e-11  1.1962563348781162e-11  1.2088905148364838e-11  1.1985501634868955e-11  1.0256436051882126e-11  1.3954735567600046e-11  1.1184530923155146e-11  1.3972390850253932e-11  1.3895696927464648e-11  1.1481366619024055e-11  1.2067510954107053e-11  1.1530093675632581e-11  1.0150325401278822e-11  1.0168287595919601e-11  1.3702020701104690e-11  1.4263388650581659e-11  1.3235004316565058e-11  1.0463560861000991e-11  1.0848053571960313e-11  1.1832431004531769e-11  1.2119960445192183e-11  1.1939343090429369e-11  1.1693778454820657e-11  1.1377462881674750e-11  1.0994632797240021e-11  1.1082489285138045e-11  1.3481348284046153e-11  9.8161441229799322e-12  1.1148233366680649e-11  1.1211539873668889e-11  1.1521861687396779e-11  1.0087441620858224e-11  1.0474867190784787e-11  1.0124954817083655e-11  9.8131009100254383e-12  1.1046665157297058e-11  1.1063229997681877e-11  1.3795205005553900e-11  1.3764469900629051e-11  1.2440100090687327e-11  1.0727560709879115e-11  1.0199434407426424e-11  1.2322210470144637e-11  1.0073889985162233e-11  1.0523313046908375e-11  1.3189058099733035e-11  1.3025889496917965e-11  1.0439320354247065e-11  1.0889243706888599e-11  1.2256191589034246e-11  1.4093687631918477e-11  1.1545475282700374e-11  1.0585413093834972e-11  1.0622757893200241e-11  1.4884623990609692e-11  1.4832242447981197e-11  1.4780985140429745e-11  1.1928225867414200e-11  1.0068672151510855e-11  1.2107256208244666e-11  1.4235698634922683e-11  1.0080223724873745e-11  1.0550400180269721e-11  1.2764392569150977e-11  1.2275340241919520e-11  1.1110642073145123e-11  1.0026162191232452e-11  1.2672516368707654e-11  1.0573496946778417e-11  1.0103712009814923e-11  1.4290992845700197e-11  1.2864286404969921e-11  1.2372519884406806e-11  1.0611427997114404e-11  1.0069495799011876e-11  1.2171378692079596e-11  1.1781941365100691e-11  1.4620869816037635e-11  1.2619476551938684e-11  9.8395009725431528e-12  1.3237280071971626e-11  1.4001378244280430e-11  1.3230622805627857e-11  1.2171508001000412e-11  1.3423916622648757e-11  1.3374986480039020e-11  1.3771409128864486e-11  1.0625300316810586e-11  1.1782615408195626e-11  1.4886839486823721e-11  1.3234922393207497e-11  1.4488020146902122e-11  1.4554896441559118e-11  1.4471912908206243e-11  1.4669421026948402e-11  1.4671541401989105e-11  1.0078018785228812e-11  9.8101978539183100e-12  1.3041064291088738e-11  1.2978547961322578e-11  1.3187308497529831e-11  1.3048117877031053e-11  1.4897411115942165e-11  1.1952845797076433e-11  1.0429589033393267e-11  1.3910826485025308e-11  1.0814665216619266e-11  1.0630858782736175e-11  1.0523319184403910e-11  1.1601685365404094e-11  1.0743159175833761e-11  1.3781729605096817e-11  1.1228423003252174e-11  1.2917045822226239e-11  1.0658806237338724e-11  1.0455178544472125e-11  1.5007003244619612e-11  1.4999086394100941e-11  1.1109473369846068e-11  1.3231813626073382e-11  1.0346137653365850e-11  1.4955154175799452e-11  1.1202472446566585e-11  1.0045278353494122e-11  1.4419007344677082e-11  1.4388600856091862e-11  1.2312290128188775e-11  1.1269618122826557e-11  1.2589485009360470e-11  1.3801182245662786e-11  9.9229064497892472e-12  1.4875512393882103e-11  1.0742048250851755e-11  1.1312755279099923e-11  1.3969828163183280e-11  1.0977145557074379e-11  1.4658727121418659e-11  1.2386364465149584e-11  1.1045862331120917e-11  1.1358545446947837e-11  1.1940770176591903e-11  1.1184902132718415e-11  1.2216341406000680e-11  1.2540613712749963e-11  1.3511814044628110e-11  1.2064995869186023e-11  1.1553075323707321e-11  1.0339436016811193e-11  1.0062967013740821e-11  1.1139543128794181e-11  1.3473962504354689e-11  1.0184080028098121e-11  1.0073543487254304e-11  1.3590285362417779e-11  9.9152409263983325e-12  9.9351780435173114e-12  9.9419170248090885e-12  1.0279008139295212e-11  1.0039056345279041e-11  9.9567989072064031e-12  1.2501300898863774e-11  9.9619208840089405e-12  9.8278543827652078e-12  1.2004721459387993e-11  1.2433467003823953e-11  9.8167573518862339e-12  9.8233596584250176e-12  9.8250905173341929e-12  1.3958256697751784e-11  1.3642194583348458e-11  1.3291075592813835e-11  9.9265483172717034e-12  1.4476397837803827e-11  1.4200122893670934e-11  1.1547721948615618e-11  1.1606996599143636e-11  1.0048584823425219e-11  1.4937910647575356e-11  1.0791020143078999e-11  9.8226124086676222e-12  1.4656081947050461e-11  1.2845185852229621e-11  1.4938886223761887e-11  1.4829773805910545e-11  9.9201516780216545e-12  9.8194753991568209e-12  9.7463036641816181e-12  9.7889719218213819e-12  1.2910287405432308e-11  9.9330511514266444e-12  1.4674653055478532e-11  9.8359900811803167e-12  9.8499303470679360e-12  9.8202528545757631e-12  1.1714842793375621e-11  1.0894548633292746e-11  1.2559361304616349e-11  1.0177061768672387e-11  1.2887401766783008e-11  1.0236054179860414e-11  1.4560686868950646e-11  1.4527459695657243e-11  1.4673302675145368e-11  1.0645399085446807e-11  1.4783965734655867e-11  1.4155209395241020e-11  1.4627061354780568e-11  1.1438924565545180e-11  1.3453371774617573e-11  1.3803412725380886e-11  1.1220694830070437e-11  1.2917312427540066e-11  1.2730652671488208e-11  1.2547644533946812e-11  1.3296349440754151e-11  1.4498509052369828e-11  1.4681323947180385e-11  1.0595493193474070e-11  1.1882334790988453e-11  1.1673297460093914e-11  1.0872459347335974e-11  1.4388771431793498e-11  1.0099121135536687e-11  1.2790309792531082e-11  1.1361282892130621e-11  1.3656815612968269e-11  1.4081009718826735e-11  1.2895732613108177e-11  1.1520693151822989e-11  1.2945986653390608e-11  1.3887185529043929e-11  1.3726324771273384e-11  1.1648207797724253e-11  1.0471858166823786e-11  1.4157250546184079e-11  1.0920616948507358e-11  1.0733312974992885e-11  1.2965479259692978e-11  1.2326189693116996e-11  1.4198810387584738e-11  1.2185774181885403e-11  1.4513816887560714e-11  1.0637470368406052e-11  1.2402729546330513e-11  1.2286373111211498e-11  1.1104640498568387e-11  1.1631750912162044e-11  1.1536891335247300e-11  1.1223818906172971e-11  1.1261865758971492e-11  1.1022201698787612e-11  1.3113070079897676e-11  1.1350004342077750e-11  1.2109065216572094e-11  1.3304811286623895e-11  1.1863675729049963e-11  1.1738927577834231e-11  1.0392074238262712e-11  1.2854905249353777e-11  1.1932139201009939e-11  1.1808424541920416e-11  1.1257870239794656e-11  1.1526673552725580e-11  1.2647586523308445e-11  1.2565588522232626e-11  1.2271633947534284e-11  1.3665910416333280e-11  1.0882929689550782e-11  1.0696132796378592e-11  1.0657873929612700e-11  1.0833912302325167e-11  1.0986112398384588e-11  1.0689641816844886e-11  1.0557415748063886e-11  1.2603813146011142e-11  1.2923378683237968e-11  1.0660650015687537e-11  1.0130260618615317e-11  1.0841361994728986e-11  1.2304735361726921e-11  1.3050071576606501e-11  1.3572089297471309e-11  1.2525895929508486e-11  1.1388126247556662e-11  1.4231056189240068e-11  1.3229067822399759e-11  1.0461756827529280e-11  1.4327302203607574e-11  1.1717951593167722e-11  1.1046638084050351e-11  1.0898201519412593e-11  1.0103603932050409e-11  1.1056621562453238e-11  1.0214615397448009e-11  1.3027111487628389e-11  1.2583157660898367e-11  1.3087432408651989e-11  1.3376043791756734e-11  1.1552876216246516e-11  1.1446315236364301e-11  1.1987439783047916e-11  1.0424901950103117e-11  1.3558137366053794e-11  1.2589810397944488e-11  1.3039856189909423e-11  1.3208526353385672e-11  1.0639826821163839e-11  1.0130579952949070e-11  1.1526954255048027e-11  1.0133039449130459e-11  1.1495874835940972e-11  1.0449018962988344e-11  1.0397021443978974e-11  1.1152808961431385e-11  1.2634890306376593e-11  1.0327026339457408e-11  1.1149091753729464e-11  1.1541206597391313e-11  1.0565070948460796e-11  1.0809908141050912e-11  1.1005121774749729e-11  1.0495937374511541e-11  1.33805459306