<?xml version="1.0"?>
<VTKFile type="UnstructuredGrid"  version="0.1"  >
<UnstructuredGrid>
<Piece  NumberOfPoints="6486" NumberOfCells="12696">
<Points>
<DataArray  type="Float64"  NumberOfComponents="3"  format="ascii">0 2.5 0  0 0 0  2.5 0 0  2.5 2.5 0  1.25 0 0  2.5 1.25 0  1.25 2.5 0  0 1.25 0  1.25 1.25 0  0 0.625 0  0.625 0 0  0.625 2.5 0  0 1.875 0  2.5 0.625 0  1.875 0 0  2.5 1.875 0  1.875 2.5 0  1.770833333333333 0.7291666666666666 0  0.7291666666666666 1.770833333333333 0  0.9375 0.625 0  1.875 1.5625 0  0.642361111111111 1.163194444444444 0  1.341594827586207 1.883979885057471 0  0.46875 0.46875 0  2.03125 2.03125 0  0.3626104797979798 1.513178661616162 0  1.381740196078431 0.4564950980392157 0  0.9375 2.172619047619047 0  2.172619047619047 0.9375 0  2.096354166666667 0.4036458333333332 0  0.4036458333333333 2.096354166666667 0  1.684027777777778 1.163194444444444 0  0.3418803418803419 0.8693910256410255 0  1.642742622813391 2.162164207604464 0  1.275619849389031 0.8465650753054845 0  0.9136284722222221 1.434461805555556 0  1.732437511238546 0.3406962303960658 0  0.9714402568595876 1.029779313093998 0  1.52281746031746 1.485615079365079 0  2.1875 1.71875 0  1.06819722569879 0.2997236128493951 0  2.136114211309524 1.303478422619048 0  0.3125 0 0  0 0.3125 0  2.5 2.1875 0  2.1875 2.5 0  0.3200021620376328 1.192323085056694 0  0.6738456129277992 0.8304377375553881 0  1.757891808928991 1.861952730357003 0  1.5625 0 0  0.9375 0 0  0.3125 2.5 0  2.1875 0 0  2.5 0.9375 0  0 0.9375 0  0 1.5625 0  0.9375 2.5 0  2.5 0.3125 0  0 2.1875 0  1.5625 2.5 0  2.5 1.5625 0  0.7448220909826522 0.3003573636608841 0  1.027298850574712 1.871151477832512 0  1.331260495098891 2.197262878816185 0  1.207917681892289 1.582765010956622 0  0.4339993447432606 1.801186844743261 0  0.6337298768939392 1.443093039772727 0  2.049851190476191 0.6826636904761904 0  0.6584821428571428 2.219122023809524 0  1.89575676467455 0.9798457973793544 0  1.437570562095628 1.059380588255917 0  1.502090052505845 0.6987070896496241 0  0.2040860661083546 1.705323965099331 0  0.2083333333333333 0.46875 0  0.5070952039991439 0.2211150679997147 0  0.6916302856529919 0.5813591430410241 0  2.265625 1.953125 0  2.2265625 2.2265625 0  1.886424081252096 2.243391360417365 0  1.40625 0.202164758520858 0  0.2269345238095238 0.2269345238095238 0  1.152730869673694 0.5225850378741401 0  1.885631899587912 1.312095130148776 0  1.614808884009367 0.9049784971014416 0  1.890095442220658 0.5126535558463003 0  2.323168682795699 0.46875 0  2.268811725689575 0.2304742875213018 0  0.6002389442105756 1.967426444210576 0  0.1768313172043011 2.03125 0  0.2311882743104251 2.269525712478698 0  2.03125 0.176831317204301 0  2.280262553344767 0.6954945504579233 0  1.979219539285994 1.809922269642997 0  2.336309523809524 1.09375 0  1.09375 2.336309523809524 0  0.9314042474388009 1.662973812215543 0  0.1634067999087722 1.40625 0  2.337090640094896 1.40625 0  1.141616997467638 2.069311773587991 0  0.46875 2.338939559681489 0  1.542440307908715 1.734944797244472 0  1.556713687786879 1.956977865354753 0  0.8264238995344066 1.975424467820646 0  1.466326331454725 1.275271369760862 0  1.655675324257095 0.5444159974393489 0  0.3385416666666666 0.6479255698005697 0  0 0.78125 0  0.5236073939200119 0.984090461540625 0  2.091665741047893 1.519793517904215 0  1.71875 2.5 0  0.5356538886262603 1.623137930505009 0  0 1.09375 0  0.1932884281517095 1.015625 0  0.8569313582417669 1.2198915584249 0  0.8876981284879677 0.8329884081524883 0  1.115618488474214 0.7219586973356271 0  1.186950366204949 1.043465130075318 0  2.057459118787237 1.110823087309335 0  1.830651283878689 2.049810069572418 0  1.689107969301489 1.367247437031697 0  0.4921048768039656 1.298643370653124 0  0.8213975694444444 2.336309523809524 0  2.03125 2.5 0  1.049729400480002 1.283723261332814 0  1.308101375801673 0.6489479469700392 0  2.5 2.34375 0  0.4968777175037714 0.7562964879736076 0  1.40625 2.5 0  1.501347663534097 2.307027627307738 0  1.602813712048603 0.1926218191360736 0  0.8393082906308107 0.463778306132633 0  1.682663349152719 1.598471865581041 0  0.7774174680851571 1.560004941327907 0  1.554204170364662 0.3898593897892066 0  1.842184459051087 0.186443880058197 0  1.358107417651776 1.696381759610015 0  1.18859291992392 1.77598670078022 0  0.1875331222687418 0.7609599743339348 0  1.339536743965101 1.422080365801479 0  0.7788179348750389 0.9955343414928611 0  0.9062978492805438 0.1919636509126373 0  1.256007360640958 0.3160320559396114 0  1.09375 0 0  1.174986727221844 0.1594990293443933 0  2.34375 1.796875 0  2.318026474511116 1.589177949022232 0  2.34375 2.5 0  1.672742954892153 2.332882724550692 0  0.2683637361947215 1.874801596909639 0  2.174770749820102 0.5581009131310781 0  1.443279522965991 0.8870068372898454 0  0.3385416666666667 0.3571428571428572 0  0.78125 0 0  2.060421048269335 2.314363248763811 0  1.088078737088509 0.8967352118723447 0  1.087825368444708 1.454931510884769 0  2.018308232129541 0.8548495425854904 0  1.943987311736842 0.3246298523011434 0  1.71875 0 0  1.85337849796276 1.144833312386208 0  2.3486328125 2.1044921875 0  1.407588788651747 2.042968789119587 0  2.336309523809524 0.865366648092144 0  2.34375 0 0  2.5 0.15625 0  0.15625 2.5 0  0 2.34375 0  0.1638044648294291 1.242263417405867 0  0.356216654757926 1.032569427322806 0  0.3188217956111817 1.355736727000647 0  0.5924956460852111 0.36112522004736 0  0.6594216488965849 0.1603472116132387 0  1.841804599497131 1.72214349266521 0  0.15625 0 0  0 0.15625 0  2.115898634821499 1.894570904464496 0  0.7821877980253907 0.7129993435924866 0  1.003820447087786 0.4516053462784233 0  0.477562948779147 1.138333049293613 0  0.719493678605015 1.305655360135975 0  0.9772457618587566 2.020350128938537 0  0.8764738248887107 1.826219722709673 0  1.254787875123819 2.339010653832026 0  2.343597354852534 1.249982759769001 0  0.78125 2.5 0  0.46875 2.5 0  2.5 1.40625 0  1.09375 2.5 0  2.5 0.78125 0  2.5 1.09375 0  2.03125 0 0  2.5 0.46875 0  1.40625 0 0  0.46875 0 0  0 0.46875 0  0 1.40625 0  0 1.71875 0  0 2.03125 0  2.5 1.71875 0  2.5 2.03125 0  2.005424054645407 1.653223486966518 0  0.1538730573856537 1.559850281736677 0  2.33984375 2.33984375 0  1.166539506212474 1.922878979538754 0  0.3914885633949916 1.65887232812171 0  0.5795503163042564 1.766243562569382 0  0.399533125920212 1.946786875081388 0  0.7866324979014098 2.127719094551316 0  0.3654683023546834 0.1495701132219454 0  0.1527388747131078 0.6116379440619215 0  2.013737577140188 1.391056634712135 0  1.17635437372994 2.213329084238133 0  1.737118141866284 1.010577140843115 0  2.200707118087222 1.164723314085963 0  1.697018908736685 1.993548551451517 0  0.5387621649009668 0.6070503962352419 0  2.032805785855952 0.5330427622570983 0  1.082699501358059 1.667818725183932 0  1.503819781540653 0.5468420196858188 0  2.015409142866072 2.175941657590429 0  1.752057611265444 0.869642097111018 0  0.612251684107783 2.356045720700959 0  1.902817102342857 0.6607642211999982 0  2.159616561739693 0.7867739969338844 0  0.5120038350106624 2.197302352398502 0  1.888200216011548 1.919501662489862 0  1.495909909726654 2.16028358757309 0  0.489139876703609 1.443203008943564 0  0.8819175670410521 0.3301172743913011 0  1.882591144370812 0.8155965192707721 0  1.133979796994841 1.172526771862882 0  2.206217447916667 2.084147135416667 0  2.20361328125 2.36279296875 0  1.395746985657004 1.556054166359645 0  1.704383111516207 1.734750450338683 0  0.9575737847222222 2.36274223823052 0  1.035150984253136 0.1302833343179028 0  1.383966125325753 0.7651479963479179 0  1.64003252158672 0.6824316405528895 0  2.22550785055421 1.487078576356817 0  1.760964431499756 1.48495222505201 0  1.276460980673788 2.004207003584658 0  0.1341477688427096 1.828777507920502 0  1.542261434180652 1.155296658359034 0  1.334627911613854 0.9696897472490321 0  1.30794231473696 1.119420615785191 0  0.7028260459857245 0.4438906910721139 0  1.625757433094055 1.84268057552138 0  0.9818707849053143 1.165603626132254 0  2.0086489901463 1.243134585689553 0  1.934584460420609 2.374094051915812 0  1.798434376789567 2.38671361912528 0  1.206314791201715 1.382064292497919 0  0.6333752893366955 0.7023738550008095 0  0.7796219811205605 1.42573253164258 0  1.564399711917382 1.026040828857629 0  0.3385416666666666 0.4889012896825397 0  0.1041666666666667 0.390625 0  0.989112246382566 1.543537365516289 0  2.025724425454636 0.9846960595520872 0  0.6602885475034063 2.086117390485779 0  1.607130551925032 1.267198646640915 0  0.1317864544877056 0.8896173683400176 0  1.755387840017567 2.230364320056445 0  1.301540702984401 0.1216289692748247 0  1.433170657577442 0.3331052752740999 0  1.500459610550388 0.113513924782439 0  0.6494291520606965 1.029586599619295 0  1.010146149868299 0.794897284196169 0  0.3700844198238017 2.235390157870766 0  0.3360891767780704 2.36656279435396 0  1.876856241037701 1.437150669863757 0  1.778674102957329 1.245979347269706 0  0.5472829890977179 0.1005517127039925 0  0.4669074189005698 0.3416784232954367 0  1.472765289289269 1.850899166481903 0  1.555853593327178 1.608452097912802 0  0.6708955559113426 1.646561631116984 0  0.8164699620322933 0.5924479455478063 0  0.3167738989468366 1.758696809749795 0  0.2788007305565096 1.605499483471246 0  0.7821720982350511 0.181524936294752 0  1.376812251214195 2.313340247908297 0  1.785652202614777 0.5962261755537186 0  1.761467296310972 0.4679567244718574 0  2.2265625 1.8359375 0  2.3828125 1.9140625 0  0.5279531607054191 2.071552361614785 0  2.397573269551114 0.234375 0  2.383578172599618 0.3589298466020009 0  0.1024267304488855 2.265625 0  0.1164218274003825 2.141070153397999 0  0.2696857594953064 2.135405441512016 0  2.164961300137334 0.1375322943529536 0  2.137757548369486 0.2724194778647587 0  2.238873711826398 0.3626419179496562 0  0.1001414910226386 0.234375 0  0.2176339285714286 0.3478422619047619 0  0.2503620791333544 0.1061694061057066 0  2.336445461915368 0.1250451055247424 0  0.2154004640409726 2.3918124
[...]
<PointData  Scalars="f_16-2"> 
<DataArray  type="Float64"  Name="f_16-2"  format="ascii">-4.3303751564693240e-21  -1.1859698999915486e-21  -1.1117683823813888e-25  -4.4927793430390521e-23  -7.2568029611592074e-21  -8.9577431491245095e-22  -2.0345599822691242e-20  -1.7801523171799242e-16  -5.5986086099323044e-16  -1.3425028868470402e-16  -1.7144156739373305e-20  -5.3408425620723899e-21  -4.9291075190465100e-18  -6.7678675757400183e-25  -1.2213066794446103e-22  -1.7987078679359075e-21  -6.8376618444584916e-21  -1.8755915996795058e-19  -1.9816321789900379e-17  -1.2170230993135891e-16  -6.2724348178726218e-18  -6.1336665264508390e-16  -2.4857477290857058e-17  -5.2577334183085697e-16  -1.8704358885186449e-19  -7.0761705737288499e-17  -1.7529619904832616e-19  -5.5647347686774068e-19  -9.7937056804915585e-21  -1.8137733305358038e-23  -5.7344183793150400e-19  -2.1806626215445511e-17  -3.9825348774655683e-16  -7.6869247674918070e-19  -8.8490506538307625e-17  -4.5028462083015989e-16  -6.9083513730541936e-22  -1.0262688102882806e-15  -1.1369764197786138e-16  -1.4385274141784171e-19  -1.7133618330750364e-19  -2.3155471289116553e-19  -1.0255290075301715e-20  -1.3511361733134384e-17  -4.8374246286826841e-22  -7.0939776703908360e-22  -2.0555493293018728e-16  -1.1965822170749941e-15  -4.8337965049623116e-18  -1.3633062981769527e-21  -1.5611239661243272e-20  -3.8950115360765447e-21  -4.3674323966200728e-24  -5.2605925836393213e-23  -2.1896644317125770e-16  -5.5882496611873389e-17  -6.9593316146746008e-21  -6.1474869347051482e-26  -1.9311389542223490e-19  -1.9294097741550272e-20  -2.6753575520293894e-21  -2.7781553186918273e-18  -2.0033670313283444e-17  -8.7753177557503527e-19  -2.4147996564166655e-16  -1.0798074871695933e-17  -1.5933231081928031e-16  -2.2540439014706801e-21  -1.4575411538949598e-19  -6.5513127370642378e-19  -1.1231030978360851e-16  -2.6942987176985740e-18  -2.2503915697003125e-17  -6.1936938261843677e-16  -4.2662712718667012e-18  -3.7771424624478987e-16  -2.3558026962754945e-20  -6.3799883824900572e-21  -8.5845544417901133e-20  -4.1724900629916573e-21  -5.1421399170588618e-17  -4.5392154777654044e-18  -4.5063525259869497e-18  -8.4543295694272508e-18  -1.3629959754353324e-21  -1.1168205143327280e-24  -1.2452205013149761e-24  -2.4470465903411684e-18  -1.0875303202809578e-18  -6.8793623588806205e-20  -2.2262761917994699e-23  -7.6465467458155624e-23  -1.0195233484032539e-18  -3.3516876882906654e-21  -1.0901042012213270e-19  -9.8917825292599379e-17  -1.1502323742907285e-16  -1.8836854688784340e-20  -3.2249710657526809e-18  -3.4097629076827981e-20  -3.8207975338635267e-17  -7.0927624916417818e-18  -3.7512567211503222e-18  -1.7913328358610053e-16  -4.3641915404641365e-20  -7.7217007673164373e-16  -1.9201342002416566e-16  -6.9075358162427671e-16  -5.4541019333546617e-19  -1.4123424805524921e-20  -4.0197623979153667e-17  -2.1483741127720168e-16  -2.2594709153380724e-16  -9.3297962396188024e-16  -7.2263634883233530e-16  -8.7401801015057238e-17  -5.0295068978379333e-16  -2.2557256275274680e-19  -7.1709794856823356e-19  -3.5106386788677530e-17  -2.0433067978271772e-16  -4.4523087486303478e-20  -2.6290917922160507e-21  -8.1973407502504985e-16  -7.5977625319268760e-18  -1.5952752775625378e-22  -1.0667236903507418e-15  -2.1401503513598270e-20  -2.1230373289320510e-19  -1.1025397020780172e-21  -3.1312760387569205e-17  -2.8180357452702815e-17  -1.1915284012923088e-16  -9.4127303002233387e-21  -1.3692910630952883e-22  -9.9095440144030501e-17  -6.3807301171613259e-17  -2.3724776832009552e-16  -3.2747152768313425e-16  -1.2254548693939786e-15  -5.5327783567065465e-20  -4.1051738590606249e-20  -1.1716807620188031e-20  -1.1766349568127779e-20  -1.6136547834682293e-20  -3.0660484175798181e-20  -1.8515132891053554e-22  -1.0642247868991352e-19  -5.6590272745548918e-18  -4.0154119941228657e-23  -3.3221131519427732e-17  -3.8041966627428152e-16  -1.7660837249591876e-20  -1.1990909397190780e-20  -4.1346251322228155e-16  -4.7970281040931879e-16  -3.5934440961566043e-20  -6.5946887998106285e-23  -4.6719337820693611e-22  -3.3039940335047740e-18  -4.1061577132531998e-21  -4.6361899822764967e-18  -2.7785910412823308e-22  -7.3840970066311124e-25  -8.7976597991398117e-26  -4.2044281120120538e-21  -2.4172844978105486e-20  -1.7699257530268494e-16  -2.9635554108514948e-16  -1.3430089575076624e-16  -4.9284927855270316e-17  -1.3924918656336180e-19  -4.9715300549250561e-18  -2.6198870588592302e-22  -1.7992997117931753e-19  -1.6585280036577289e-19  -5.9195568171309976e-16  -6.2767693453293842e-18  -3.4798696745081197e-16  -4.5664833429362785e-16  -3.7679144059206977e-18  -1.9844179592407938e-17  -1.5120314850199723e-19  -8.3921804707524117e-21  -5.1340581527367593e-21  -4.2182372225554997e-21  -1.9418727056338512e-21  -1.2953889930215615e-20  -6.9602890449910005e-24  -2.7438018416236360e-22  -2.6860061667675280e-23  -7.5803255101327021e-26  -3.2903033000090652e-21  -1.5168590192187405e-20  -7.5428982188455346e-17  -1.1752701259290208e-16  -1.9945518596474074e-17  -1.1861169094902428e-18  -2.5993356391661140e-21  -9.9980490139215095e-22  -1.3114576854511066e-18  -5.6082695708844327e-17  -8.0553747958065725e-22  -1.6322300619153698e-17  -3.2144567092588805e-17  -1.4294582066858640e-17  -2.8983986244502499e-18  -5.7968951363941517e-19  -1.2530520393427735e-18  -2.1945141364876293e-16  -1.2823465224563086e-18  -6.7692869430738523e-19  -5.2899256106034062e-18  -3.9696215263101733e-20  -2.8434584959029486e-18  -9.0712844477900860e-16  -2.3858371828372085e-22  -1.3535606536554440e-16  -2.3660972313781902e-19  -6.2424304976981900e-20  -1.2788997847936007e-18  -2.6076981654024044e-20  -1.2047457523056462e-20  -1.7981878544110714e-21  -1.9139883597649556e-19  -1.2472325942638940e-18  -1.1531668625712281e-18  -1.0768494845989819e-16  -1.8563204550984401e-18  -1.2230312195240873e-19  -7.9617081747139238e-16  -2.1708388506101319e-20  -2.0301197258917251e-21  -1.6891571699297617e-16  -1.3468140215121383e-17  -4.4415580101817030e-20  -1.6141192432668171e-20  -1.7026265501806662e-17  -4.4167351528007142e-19  -1.0769189360079614e-19  -1.9811072162390363e-17  -7.9454710600899188e-18  -8.7565787896713258e-18  -7.3932451688125584e-17  -1.3748516387423613e-16  -3.3675432594343525e-16  -7.9560506667744966e-17  -1.2896027031384483e-17  -1.0510641168555342e-15  -9.4859701843260020e-19  -1.7086690402977176e-20  -3.1997908418094476e-20  -5.3563375387760782e-16  -9.9492220145472144e-16  -2.9704535849746966e-16  -3.3208039139450013e-17  -8.9022988731989348e-16  -2.2734315920593501e-16  -2.7105053200081877e-16  -1.1967108470035292e-19  -6.8441814820833242e-19  -6.2656682987414902e-17  -2.1762411223694158e-16  -2.3368629393036692e-19  -6.1674372125923744e-21  -1.2570256667805765e-20  -2.0444739045899217e-21  -9.5906173429999632e-16  -3.3130632416249559e-16  -1.2218169670610722e-19  -2.0022503681171941e-20  -6.1090743394414377e-18  -1.1775493341328722e-17  -5.5203619454983612e-20  -1.0578416814202467e-16  -2.3330469805880951e-17  -6.1609953287268159e-17  -4.3674697189787266e-17  -2.0714973690670227e-16  -1.5245892585350567e-17  -4.4337997383596227e-17  -1.1233116490617088e-19  -2.1027858111220669e-19  -2.0484366433953407e-20  -3.0720147713139008e-21  -6.7044181524432240e-20  -6.4305399712797029e-21  -8.0856673978292579e-19  -2.1133952773091145e-25  -2.6335773926542999e-25  -7.9029712803480029e-20  -3.6434426566591065e-19  -3.8630500900577234e-19  -5.0699758346893606e-24  -6.5681707832289402e-24  -2.1197497352745670e-24  -2.8970086949534785e-17  -6.0524944012348713e-16  -1.2034777199080642e-19  -5.9513333731593957e-25  -1.4614118423614046e-20  -4.4659421820804377e-19  -6.9940515169357843e-20  -4.5386261751596593e-22  -3.7357179827428845e-17  -4.7387504313275207e-19  -1.6439151578112213e-18  -1.8749359941275539e-18  -5.1035949140575981e-17  -1.0009332386596968e-15  -2.7918006222710000e-18  -6.3727988542110126e-23  -3.1041380598211938e-24  -3.1660325627355431e-23  -1.1995410216001388e-21  -2.8684724814211327e-16  -5.6075320789090724e-18  -4.7749882966376474e-18  -6.9427126548040103e-18  -1.8703946690495294e-19  -1.1693786592442973e-16  -3.5244029464054835e-22  -7.5530732457511156e-16  -5.3236452093376193e-17  -4.5846698221092871e-17  -3.2942624968849836e-22  -1.8747303327359981e-20  -1.3781929324294655e-20  -1.9968044313953480e-18  -2.0780523177852836e-16  -4.8314530369133049e-22  -1.6983740898121278e-16  -3.3711322326606147e-16  -4.8960359117491400e-19  -4.9199964112134264e-19  -1.1835238354205783e-22  -4.4636108815686550e-20  -9.2210588525631248e-17  -1.4958253771716556e-16  -6.2188000269232098e-21  -5.0233039619138796e-20  -1.1954539997349063e-15  -8.0461350767689591e-22  -1.5904308813479754e-18  -2.1652101116846220e-19  -2.3141375863845087e-22  -7.6255136873086993e-21  -2.3689925685891304e-18  -2.0609976927856772e-16  -1.5368455102932119e-20  -7.7662950720838973e-16  -4.4083645099889712e-16  -9.8818478866185381e-16  -6.3218687890177496e-16  -6.4241463499000227e-21  -3.5527608036971369e-17  -1.9822916555879398e-16  -3.9215108157139573e-21  -1.5463343437214672e-21  -5.0943338024143524e-20  -1.2945310746531657e-20  -1.6377883289227936e-22  -2.0951317928113346e-18  -3.1175468006108916e-19  -1.0174203347017465e-18  -2.7088350012608656e-21  -2.7578205088386597e-21  -9.1369507459984034e-19  -1.5663869873125442e-18  -8.6195922915697722e-18  -3.6615818831800596e-16  -8.7673819519031400e-17  -3.5934435036246977e-17  -2.6591866683591762e-20  -8.3574374308616254e-17  -9.0566996168087286e-16  -2.7292937361548102e-16  -4.7827452542303316e-20  -1.0989313733573719e-15  -3.8641802571360608e-16  -9.7338435830872862e-16  -7.4225963303373177e-16  -1.8710152700835285e-20  -5.7496389052237922e-16  -5.6663968809272882e-17  -2.6967334780605791e-16  -8.4259136285057430e-18  -1.4131082155189465e-18  -2.2373760240692234e-21  -2.1659911659812964e-16  -3.3718074424974089e-19  -3.9652143249549615e-18  -1.8717634075171243e-19  -2.5165460114143974e-16  -1.0873383054150449e-15  -5.8483548609886392e-20  -2.0488778283368133e-16  -1.2462705834164230e-21  -3.6531382955117091e-20  -6.3549199849626381e-16  -1.5451014193553659e-16  -2.2159278359358543e-16  -6.2080592281167129e-19  -5.0995648530348886e-20  -2.7115437971116793e-16  -2.0682794402585460e-19  -7.5648445754081246e-20  -7.3455399425117139e-17  -1.1079586409643710e-15  -2.5976360069973317e-25  -1.6981758607679075e-17  -4.5406857417633547e-17  -1.5084810034140896e-16  -7.5840377441761864e-24  -2.1899155038663327e-17  -5.9955121632448871e-17  -1.2566768654581199e-17  -1.0610248690730487e-15  -5.8329490190259915e-16  -4.6612304506191620e-21  -7.1553243519861799e-16  -1.2260078992882815e-17  -2.4617423798025795e-18  -4.3125778834352014e-19  -1.8819065282090069e-16  -2.1828287519611614e-16  -6.9046988473579852e-18  -1.1849716076406175e-17  -2.0416267561277417e-18  -4.9507188980325051e-19  -1.7866342653909214e-20  -3.9461595123283397e-16  -1.5283917863104457e-20  -6.0166587687963549e-20  -2.1299026170867481e-23  -1.0554626610131029e-20  -1.9595182497423994e-18  -3.6621692804041508e-21  -3.2320636112605496e-18  -2.4622907442733892e-20  -1.7134989521583499e-23  -1.8510735328303751e-17  -7.0318940935510907e-16  -2.1929260124231571e-22  -5.5760541080673573e-22  -1.2318801732181308e-15  -3.0760885406253543e-17  -4.2991821034303726e-18  -2.4920303681019254e-19  -1.8766332429671885e-24  -1.3278035046805082e-16  -2.1468823944795572e-16  -5.4718227574341586e-19  -6.4682810617704065e-21  -1.4246687018529781e-21  -8.7996347407093777e-21  -1.4812138251839441e-16  -8.1595243125848995e-16  -6.4342772260878303e-16  -1.9765764647527402e-16  -5.1381804736508105e-17  -2.7621672727810812e-19  -1.6640903239652593e-16  -1.0783665240907338e-23  -1.5292655407242094e-23  -1.3488199294895671e-16  -1.4160695167469539e-19  -4.7608787343939785e-16  -4.0865902459383011e-20  -3.6261230365298423e-16  -5.4007327537334493e-23  -1.4667279639506392e-17  -6.2588310787170579e-17  -3.7204219406121263e-20  -5.1826980312447124e-20  -1.0703371546846995e-20  -5.8681616449376019e-17  -3.0277180348198475e-17  -1.7393243449998996e-16  -3.1676821862313989e-19  -3.8629400095801015e-21  -3.2230808213326942e-20  -7.2796487642522667e-21  -6.5291009627999779e-20  -3.8178834548559885e-16  -1.6913574697196264e-20  -1.2753165398053863e-16  -2.8067099131736178e-20  -6.8489091841365585e-16  -3.7522257747301143e-19  -1.2804558508815231e-16  -4.1722171452573655e-20  -4.6251116222029408e-19  -2.5293837494235251e-17  -2.0500306836448072e-23  -2.6090585021486417e-20  -2.4772594417294769e-18  -2.4466757393609929e-19  -4.1084690259455580e-18  -6.3033984020241591e-20  -1.8313733267703931e-21  -3.2277267262544976e-17  -5.6339758554026084e-16  -1.4659796131582631e-20  -1.8489548954872320e-25  -4.4444741497387386e-25  -3.1043940619103189e-20  -1.7616498643486162e-20  -7.8069120340581374e-18  -1.1496421770802527e-17  -1.4218924025792292e-18  -7.1186416144710383e-21  -1.2102210227283516e-18  -2.5406130961437556e-18  -2.8293274931251532e-17  -4.2850526997405362e-16  -8.1978640145823623e-19  -1.0301178565095952e-17  -1.9570588280126315e-18  -1.0450482260607446e-20  -1.3208843374538580e-20  -1.1835031608123154e-20  -5.2261891343903838e-19  -3.7992572336278898e-16  -1.8983196407094937e-22  -2.0085999254787729e-19  -8.5856373934273440e-18  -7.4400447711484116e-18  -2.4195685358552644e-18  -3.8006279822521625e-18  -1.1594996156019118e-18  -2.0569879016859469e-19  -2.9345245910629910e-22  -8.3952487254533185e-21  -2.5295377529442854e-24  -2.8341563503080894e-20  -6.4235487544048601e-21  -1.6499854891200685e-19  -4.9791369801298207e-21  -2.0575110963285272e-20  -7.1872179896893132e-21  -1.0423848399636787e-25  -1.1882480917776241e-18  -3.9030223310179811e-23  -2.3165550767602531e-16  -2.7629852619550800e-16  -1.1972691129332099e-17  -2.9340250607412685e-19  -3.3711426185515594e-20  -2.8583732987802421e-17  -1.3365881287226188e-21  -7.1819321943854511e-21  -6.6531667202230623e-17  -7.1149522167002134e-17  -6.9197748393405243e-25  -1.9405661420597558e-19  -4.4562261224052790e-17  -5.7417343532811047e-18  -1.7886760733302604e-18  -1.3543654652628247e-19  -1.7982424766031979e-24  -2.2723204424585644e-16  -7.6661900065393522e-16  -4.1084407668961201e-16  -2.8484013946895640e-17  -2.0270440638600767e-25  -1.7092225447934510e-17  -2.0997263205167948e-16  -4.7035980970848137e-24  -3.4717489101225723e-20  -2.0914059874644995e-21  -8.3107691824959601e-20  -1.8971572724752268e-18  -4.2190777280701190e-22  -1.0702553045734445e-16  -8.3875882342509388e-20  -2.2893027442453117e-21  -2.7737318326647557e-16  -7.6879065628412538e-17  -1.0883906540633330e-16  -2.8630173607567513e-20  -1.0345762867249870e-22  -2.4773320876226871e-17  -5.9921069529174088e-18  -3.8266927226422503e-19  -1.9089814973546025e-18  -1.3766626304898075e-21  -4.8383557633367368e-16  -2.5448963192493528e-16  -2.6544258879653684e-16  -2.1069005565673115e-17  -1.7042237825107097e-16  -2.9525053130601984e-16  -2.9106217438781007e-18  -6.7054703870705777e-20  -3.8874403778599001e-19  -1.8869233913343888e-17  -1.3281315162638933e-16  -1.9826785091886179e-17  -2.7578876832969596e-20  -1.1909251299104371e-18  -2.1511092483557054e-16  -2.0507376855418319e-17  -7.9184345089686025e-22  -1.2195485451890089e-22  -3.8725844720583154e-16  -4.3464950117525308e-16  -1.8916710226997847e-16  -1.0092888822250446e-16  -3.8930229314892484e-16  -6.6802563854784095e-18  -9.0099531882171265e-21  -1.4003888347008456e-20  -6.4590928832744172e-20  -6.6864358183407955e-24  -1.1230102586502288e-20  -1.1263262450371602e-17  -2.3290770374559312e-20  -2.4262204364960065e-16  -4.0672218894620739e-19  -9.5581540787772599e-18  -3.4509588419990454e-19  -1.2941883943904134e-19  -1.0833074969710572e-21  -2.4529279202977022e-21  -1.5888831001984669e-19  -4.9953337552283739e-21  -2.1579445897721241e-21  -6.9396558781305012e-18  -4.5006846254430922e-19  -1.4248435607609769e-25  -6.1799291944306191e-16  -9.4937085189352997e-16  -4.4069300832655312e-18  -9.2845041523915794e-19  -1.1454734162595932e-16  -7.5167200164782076e-19  -4.8021768333989664e-21  -4.7374560835139608e-20  -2.9999861932010218e-24  -2.9360878075388503e-23  -3.8048518717867210e-20  -6.9608390385722219e-20  -9.0769049191791322e-16  -2.5525980449395139e-17  -5.2247084473084795e-19  -1.5032564864068596e-18  -1.9395941965294325e-17  -2.1090984780896231e-19  -4.3206791497820557e-22  -6.7074241794387153e-17  -9.2736216853711617e-16  -4.3729367417061310e-17  -2.4782437220993663e-18  -1.3553822361600906e-20  -2.4856423907585909e-21  -4.4082722078287495e-19  -1.7764987109853724e-16  -4.9534013804480540e-20  -6.7942501539627543e-21  -9.3605657435896671e-21  -3.3802694540050410e-22  -5.9936537379288931e-21  -1.4749985713733167e-21  -9.6716796433476299e-21  -4.4911206613895226e-21  -2.0362863610655478e-20  -3.5479569362652049e-17  -5.1553585377941602e-21  -2.9589752166905613e-21  -2.2741430149158970e-22  -8.2630603783501022e-22  -5.1499918522531585e-22  -1.3354805568611767e-21  -2.3772904138833260e-21  -2.2083520935555535e-16  -1.9929535449259394e-16  -1.5122310854784084e-16  -1.7019348440666451e-20  -1.6264580188343823e-16  -1.6784298713409660e-20  -5.9560820774873057e-23  -2.6004173329091017e-18  -4.0366460168432199e-21  -4.5229463980042081e-21  -6.6948680940394541e-20  -6.9632980736962653e-26  -1.6096326477067614e-20  -2.2659382801989760e-21  -2.0105815197597185e-18  -4.4001376769482112e-17  -1.0043753735807748e-20  -2.7839361023021769e-22  -8.4223129453587544e-23  -8.2229217509089057e-23  -8.1712514424433837e-17  -1.9458671595066130e-20  -1.0612740172702468e-16  -2.3518326935563148e-21  -7.5370921233407802e-22  -5.8714778988371790e-26  -3.8240919691796795e-20  -8.4952600092235357e-19  -1.6524053249963067e-16  -1.2462616785405019e-20  -1.0882421775276756e-18  -5.2644570397122628e-20  -5.0999894553895746e-16  -1.1141786617530429e-15  -7.6718803925509650e-16  -5.9182583342352944e-20  -2.5016747093002869e-20  -1.1794951466507757e-15  -1.3246218081703834e-16  -1.3587728180407844e-18  -6.8457834598697955e-16  -1.1743524583011519e-17  -1.5192076725288820e-18  -8.7177293030197569e-17  -5.8290726614351666e-17  -3.9464344896944720e-17  -1.4490951742234854e-16  -2.1593726992598201e-16  -3.5632071761488064e-16  -1.3096623293480905e-20  -1.3869760372752978e-17  -8.8894271460272275e-18  -9.5209832528380646e-20  -1.1790546906984139e-15  -5.7686626851022898e-21  -6.4787499516741857e-17  -3.4379617630285366e-18  -9.4028342499116450e-16  -3.4542384601189668e-16  -2.2646722339104602e-16  -3.7710332065112667e-18  -1.8908935686021913e-19  -1.0839006406020180e-15  -1.1247358128638571e-15  -1.6748626832606814e-22  -3.1134134238925613e-21  -9.0351015091166676e-16  -5.0892899661266941e-21  -3.6522858607973230e-22  -2.9101352254443025e-16  -1.2871337657854911e-17  -2.4804802338634426e-16  -1.9197637076489188e-17  -2.2821421732626605e-16  -7.3281496032353197e-20  -2.9143855205337215e-17  -2.2497161927746305e-17  -1.2963913055552420e-18  -3.1920700748602211e-18  -1.8996686648657508e-18  -7.4911867857304195e-19  -6.9918238629361365e-19  -3.5611166628743709e-19  -1.1769267758565889e-16  -4.4579516413387919e-18  -1.2257172704150345e-17  -3.6640395275080604e-17  -5.8276529543818733e-18  -4.1411683350176202e-18  -1.2440454283578132e-19  -5.4682121750471855e-17  -3.7182834353965976e-20  -6.4668162957584754e-21  -8.3622332039170278e-19  -7.4594653101965843e-18  -4.8013341409155035e-17  -3.9365063180816760e-17  -1.9405561751917748e-17  -5.0657104864096678e-16  -5.7741811120424420e-24  -3.1020005257690381e-19  -3.1937708899000605e-19  -1.5295123701257150e-19  -2.3598118381586658e-19  -9.5056611925637510e-20  -1.7139997236780680e-19  -8.5574628172587019e-17  -4.2635604038632844e-21  -8.9950045038685432e-20  -6.1153739364392221e-23  -1.3185912814524054e-19  -8.2683525686956199e-17  -2.1653019543062690e-16  -1.8812128182953820e-16  -6.5466510834063443e-17  -3.1005635513212341e-23  -6.6036207446528372e-16  -5.8993520937671373e-21  -8.2182472864373405e-20  -8.2146248651475877e-16  -9.2576984679930108e-23  -1.00315845