<?xml version="1.0"?>
<VTKFile type="UnstructuredGrid"  version="0.1"  >
<UnstructuredGrid>
<Piece  NumberOfPoints="6486" NumberOfCells="12696">
<Points>
<DataArray  type="Float64"  NumberOfComponents="3"  format="ascii">0 2.5 0  0 0 0  2.5 0 0  2.5 2.5 0  1.25 0 0  2.5 1.25 0  1.25 2.5 0  0 1.25 0  1.25 1.25 0  0 0.625 0  0.625 0 0  0.625 2.5 0  0 1.875 0  2.5 0.625 0  1.875 0 0  2.5 1.875 0  1.875 2.5 0  1.770833333333333 0.7291666666666666 0  0.7291666666666666 1.770833333333333 0  0.9375 0.625 0  1.875 1.5625 0  0.642361111111111 1.163194444444444 0  1.341594827586207 1.883979885057471 0  0.46875 0.46875 0  2.03125 2.03125 0  0.3626104797979798 1.513178661616162 0  1.381740196078431 0.4564950980392157 0  0.9375 2.172619047619047 0  2.172619047619047 0.9375 0  2.096354166666667 0.4036458333333332 0  0.4036458333333333 2.096354166666667 0  1.684027777777778 1.163194444444444 0  0.3418803418803419 0.8693910256410255 0  1.642742622813391 2.162164207604464 0  1.275619849389031 0.8465650753054845 0  0.9136284722222221 1.434461805555556 0  1.732437511238546 0.3406962303960658 0  0.9714402568595876 1.029779313093998 0  1.52281746031746 1.485615079365079 0  2.1875 1.71875 0  1.06819722569879 0.2997236128493951 0  2.136114211309524 1.303478422619048 0  0.3125 0 0  0 0.3125 0  2.5 2.1875 0  2.1875 2.5 0  0.3200021620376328 1.192323085056694 0  0.6738456129277992 0.8304377375553881 0  1.757891808928991 1.861952730357003 0  1.5625 0 0  0.9375 0 0  0.3125 2.5 0  2.1875 0 0  2.5 0.9375 0  0 0.9375 0  0 1.5625 0  0.9375 2.5 0  2.5 0.3125 0  0 2.1875 0  1.5625 2.5 0  2.5 1.5625 0  0.7448220909826522 0.3003573636608841 0  1.027298850574712 1.871151477832512 0  1.331260495098891 2.197262878816185 0  1.207917681892289 1.582765010956622 0  0.4339993447432606 1.801186844743261 0  0.6337298768939392 1.443093039772727 0  2.049851190476191 0.6826636904761904 0  0.6584821428571428 2.219122023809524 0  1.89575676467455 0.9798457973793544 0  1.437570562095628 1.059380588255917 0  1.502090052505845 0.6987070896496241 0  0.2040860661083546 1.705323965099331 0  0.2083333333333333 0.46875 0  0.5070952039991439 0.2211150679997147 0  0.6916302856529919 0.5813591430410241 0  2.265625 1.953125 0  2.2265625 2.2265625 0  1.886424081252096 2.243391360417365 0  1.40625 0.202164758520858 0  0.2269345238095238 0.2269345238095238 0  1.152730869673694 0.5225850378741401 0  1.885631899587912 1.312095130148776 0  1.614808884009367 0.9049784971014416 0  1.890095442220658 0.5126535558463003 0  2.323168682795699 0.46875 0  2.268811725689575 0.2304742875213018 0  0.6002389442105756 1.967426444210576 0  0.1768313172043011 2.03125 0  0.2311882743104251 2.269525712478698 0  2.03125 0.176831317204301 0  2.280262553344767 0.6954945504579233 0  1.979219539285994 1.809922269642997 0  2.336309523809524 1.09375 0  1.09375 2.336309523809524 0  0.9314042474388009 1.662973812215543 0  0.1634067999087722 1.40625 0  2.337090640094896 1.40625 0  1.141616997467638 2.069311773587991 0  0.46875 2.338939559681489 0  1.542440307908715 1.734944797244472 0  1.556713687786879 1.956977865354753 0  0.8264238995344066 1.975424467820646 0  1.466326331454725 1.275271369760862 0  1.655675324257095 0.5444159974393489 0  0.3385416666666666 0.6479255698005697 0  0 0.78125 0  0.5236073939200119 0.984090461540625 0  2.091665741047893 1.519793517904215 0  1.71875 2.5 0  0.5356538886262603 1.623137930505009 0  0 1.09375 0  0.1932884281517095 1.015625 0  0.8569313582417669 1.2198915584249 0  0.8876981284879677 0.8329884081524883 0  1.115618488474214 0.7219586973356271 0  1.186950366204949 1.043465130075318 0  2.057459118787237 1.110823087309335 0  1.830651283878689 2.049810069572418 0  1.689107969301489 1.367247437031697 0  0.4921048768039656 1.298643370653124 0  0.8213975694444444 2.336309523809524 0  2.03125 2.5 0  1.049729400480002 1.283723261332814 0  1.308101375801673 0.6489479469700392 0  2.5 2.34375 0  0.4968777175037714 0.7562964879736076 0  1.40625 2.5 0  1.501347663534097 2.307027627307738 0  1.602813712048603 0.1926218191360736 0  0.8393082906308107 0.463778306132633 0  1.682663349152719 1.598471865581041 0  0.7774174680851571 1.560004941327907 0  1.554204170364662 0.3898593897892066 0  1.842184459051087 0.186443880058197 0  1.358107417651776 1.696381759610015 0  1.18859291992392 1.77598670078022 0  0.1875331222687418 0.7609599743339348 0  1.339536743965101 1.422080365801479 0  0.7788179348750389 0.9955343414928611 0  0.9062978492805438 0.1919636509126373 0  1.256007360640958 0.3160320559396114 0  1.09375 0 0  1.174986727221844 0.1594990293443933 0  2.34375 1.796875 0  2.318026474511116 1.589177949022232 0  2.34375 2.5 0  1.672742954892153 2.332882724550692 0  0.2683637361947215 1.874801596909639 0  2.174770749820102 0.5581009131310781 0  1.443279522965991 0.8870068372898454 0  0.3385416666666667 0.3571428571428572 0  0.78125 0 0  2.060421048269335 2.314363248763811 0  1.088078737088509 0.8967352118723447 0  1.087825368444708 1.454931510884769 0  2.018308232129541 0.8548495425854904 0  1.943987311736842 0.3246298523011434 0  1.71875 0 0  1.85337849796276 1.144833312386208 0  2.3486328125 2.1044921875 0  1.407588788651747 2.042968789119587 0  2.336309523809524 0.865366648092144 0  2.34375 0 0  2.5 0.15625 0  0.15625 2.5 0  0 2.34375 0  0.1638044648294291 1.242263417405867 0  0.356216654757926 1.032569427322806 0  0.3188217956111817 1.355736727000647 0  0.5924956460852111 0.36112522004736 0  0.6594216488965849 0.1603472116132387 0  1.841804599497131 1.72214349266521 0  0.15625 0 0  0 0.15625 0  2.115898634821499 1.894570904464496 0  0.7821877980253907 0.7129993435924866 0  1.003820447087786 0.4516053462784233 0  0.477562948779147 1.138333049293613 0  0.719493678605015 1.305655360135975 0  0.9772457618587566 2.020350128938537 0  0.8764738248887107 1.826219722709673 0  1.254787875123819 2.339010653832026 0  2.343597354852534 1.249982759769001 0  0.78125 2.5 0  0.46875 2.5 0  2.5 1.40625 0  1.09375 2.5 0  2.5 0.78125 0  2.5 1.09375 0  2.03125 0 0  2.5 0.46875 0  1.40625 0 0  0.46875 0 0  0 0.46875 0  0 1.40625 0  0 1.71875 0  0 2.03125 0  2.5 1.71875 0  2.5 2.03125 0  2.005424054645407 1.653223486966518 0  0.1538730573856537 1.559850281736677 0  2.33984375 2.33984375 0  1.166539506212474 1.922878979538754 0  0.3914885633949916 1.65887232812171 0  0.5795503163042564 1.766243562569382 0  0.399533125920212 1.946786875081388 0  0.7866324979014098 2.127719094551316 0  0.3654683023546834 0.1495701132219454 0  0.1527388747131078 0.6116379440619215 0  2.013737577140188 1.391056634712135 0  1.17635437372994 2.213329084238133 0  1.737118141866284 1.010577140843115 0  2.200707118087222 1.164723314085963 0  1.697018908736685 1.993548551451517 0  0.5387621649009668 0.6070503962352419 0  2.032805785855952 0.5330427622570983 0  1.082699501358059 1.667818725183932 0  1.503819781540653 0.5468420196858188 0  2.015409142866072 2.175941657590429 0  1.752057611265444 0.869642097111018 0  0.612251684107783 2.356045720700959 0  1.902817102342857 0.6607642211999982 0  2.159616561739693 0.7867739969338844 0  0.5120038350106624 2.197302352398502 0  1.888200216011548 1.919501662489862 0  1.495909909726654 2.16028358757309 0  0.489139876703609 1.443203008943564 0  0.8819175670410521 0.3301172743913011 0  1.882591144370812 0.8155965192707721 0  1.133979796994841 1.172526771862882 0  2.206217447916667 2.084147135416667 0  2.20361328125 2.36279296875 0  1.395746985657004 1.556054166359645 0  1.704383111516207 1.734750450338683 0  0.9575737847222222 2.36274223823052 0  1.035150984253136 0.1302833343179028 0  1.383966125325753 0.7651479963479179 0  1.64003252158672 0.6824316405528895 0  2.22550785055421 1.487078576356817 0  1.760964431499756 1.48495222505201 0  1.276460980673788 2.004207003584658 0  0.1341477688427096 1.828777507920502 0  1.542261434180652 1.155296658359034 0  1.334627911613854 0.9696897472490321 0  1.30794231473696 1.119420615785191 0  0.7028260459857245 0.4438906910721139 0  1.625757433094055 1.84268057552138 0  0.9818707849053143 1.165603626132254 0  2.0086489901463 1.243134585689553 0  1.934584460420609 2.374094051915812 0  1.798434376789567 2.38671361912528 0  1.206314791201715 1.382064292497919 0  0.6333752893366955 0.7023738550008095 0  0.7796219811205605 1.42573253164258 0  1.564399711917382 1.026040828857629 0  0.3385416666666666 0.4889012896825397 0  0.1041666666666667 0.390625 0  0.989112246382566 1.543537365516289 0  2.025724425454636 0.9846960595520872 0  0.6602885475034063 2.086117390485779 0  1.607130551925032 1.267198646640915 0  0.1317864544877056 0.8896173683400176 0  1.755387840017567 2.230364320056445 0  1.301540702984401 0.1216289692748247 0  1.433170657577442 0.3331052752740999 0  1.500459610550388 0.113513924782439 0  0.6494291520606965 1.029586599619295 0  1.010146149868299 0.794897284196169 0  0.3700844198238017 2.235390157870766 0  0.3360891767780704 2.36656279435396 0  1.876856241037701 1.437150669863757 0  1.778674102957329 1.245979347269706 0  0.5472829890977179 0.1005517127039925 0  0.4669074189005698 0.3416784232954367 0  1.472765289289269 1.850899166481903 0  1.555853593327178 1.608452097912802 0  0.6708955559113426 1.646561631116984 0  0.8164699620322933 0.5924479455478063 0  0.3167738989468366 1.758696809749795 0  0.2788007305565096 1.605499483471246 0  0.7821720982350511 0.181524936294752 0  1.376812251214195 2.313340247908297 0  1.785652202614777 0.5962261755537186 0  1.761467296310972 0.4679567244718574 0  2.2265625 1.8359375 0  2.3828125 1.9140625 0  0.5279531607054191 2.071552361614785 0  2.397573269551114 0.234375 0  2.383578172599618 0.3589298466020009 0  0.1024267304488855 2.265625 0  0.1164218274003825 2.141070153397999 0  0.2696857594953064 2.135405441512016 0  2.164961300137334 0.1375322943529536 0  2.137757548369486 0.2724194778647587 0  2.238873711826398 0.3626419179496562 0  0.1001414910226386 0.234375 0  0.2176339285714286 0.3478422619047619 0  0.2503620791333544 0.1061694061057066 0  2.336445461915368 0.1250451055247424 0  0.2154004640409726 2.3918124
[...]
<PointData  Scalars="f_124-2"> 
<DataArray  type="Float64"  Name="f_124-2"  format="ascii">-3.3555455228851282e-12  -5.9317531405734655e-13  -5.7280903888502120e-14  -9.4807301284033104e-13  -4.2482191474601412e-13  -5.5418795757568366e-14  -3.5752546550859798e-12  -7.6634478178128571e-12  -4.2768663516684645e-12  -4.3142487537937203e-12  -5.9127355180342932e-13  -3.5232815999572536e-12  -7.3543058911785776e-12  -4.5276685603198087e-14  -2.0816536772207374e-13  -3.9631678833159277e-13  -2.9120554417394612e-12  -2.5108286807980495e-13  -7.7549492630508257e-12  -1.2284600050726415e-12  -1.7407402602954547e-12  -7.3258751487653723e-12  -6.7595361243087491e-12  -2.3063666202239864e-12  -2.8675389377124944e-12  -8.0340726205028321e-12  -3.9166678227636842e-13  -5.9269046633280017e-12  -1.1681331700375325e-13  -1.3356865184825395e-13  -6.2974384203608211e-12  -8.5458923451629638e-13  -6.0912681371271466e-12  -5.0865777346388495e-12  -1.0240758899305681e-12  -7.6458773899785670e-12  -2.4899475807736471e-13  -4.5163855315142551e-12  -3.8876038152432402e-12  -8.7023562719238076e-13  -4.9697083805262706e-13  -2.5630341358302704e-13  -6.0791258722614269e-13  -1.6245348841655632e-12  -8.4251560451214959e-13  -1.9371727803404197e-12  -7.5481450207923684e-12  -4.8129312652483012e-12  -4.2523272356425477e-12  -3.1016546492148318e-13  -5.2561630231324665e-13  -3.3117298626924928e-12  -1.1628245885549502e-13  -4.4165319405564757e-14  -6.5910576792457790e-12  -8.0210692094254422e-12  -3.5205865515605300e-12  -5.0182004932435129e-14  -5.6098143367413287e-12  -3.3649255077673032e-12  -1.3229364999775809e-13  -6.3250132132403222e-13  -7.3472057091542076e-12  -5.5461268422925246e-12  -6.9294757846894209e-12  -7.6933562084258605e-12  -7.9817306007610660e-12  -1.4570816607017639e-13  -5.4996212388765871e-12  -2.4521503444221766e-13  -1.3447290131725226e-12  -3.8594988784687511e-13  -7.8925264063857673e-12  -2.9178904961127222e-12  -7.1345215665916197e-13  -2.0954372616893519e-12  -1.1982803298844615e-12  -1.9900270514136836e-12  -3.7860759029917293e-12  -3.6947055096737678e-13  -1.0425020654091837e-12  -5.2675960941542183e-13  -7.0351243029743275e-13  -4.5290761580966133e-13  -1.9552274333462472e-13  -7.4837237425825209e-14  -9.1606298403896680e-14  -7.0823747709362319e-12  -6.6304087624327685e-12  -5.0042990053286682e-12  -1.5613652629007164e-13  -8.3304701498555727e-14  -2.3289818875109726e-12  -7.7764706362072564e-14  -4.6906231436403502e-12  -7.8133463856687287e-12  -7.9523842383044728e-12  -1.5247028832500928e-13  -6.4661215152213091e-12  -4.5545789407765621e-12  -5.3671502525416138e-12  -5.7996601575213025e-12  -7.0802401655567012e-12  -2.5860036922972628e-12  -2.8815046264019616e-13  -4.4488131806570023e-12  -5.6979748273518104e-12  -6.6432234181203191e-12  -6.4962307757763229e-13  -3.2265522549515362e-12  -7.9970393741654693e-12  -7.2237599285748430e-12  -6.9386389356885938e-12  -6.9355732464116626e-12  -3.1608900557961962e-12  -1.0267642770813343e-12  -2.8871466981574451e-12  -1.9757491574683824e-13  -4.1896962680097152e-12  -1.7296858598594764e-12  -7.8015718455415556e-12  -4.6654119858085368e-12  -2.5013755315594003e-12  -6.2169930689567743e-12  -5.0048642328835458e-13  -9.7217910941658864e-13  -5.0504080856851041e-12  -3.4848638418066189e-12  -4.6320240018211930e-12  -2.9630812288635078e-13  -8.3300797075022495e-13  -3.3122189262563330e-12  -7.9752684692602464e-12  -3.2056297353421889e-13  -2.1034545566646695e-13  -6.4840034283313736e-12  -7.3033794929691676e-12  -5.4325733736237759e-12  -4.9353645888600379e-12  -5.6772620996056630e-12  -5.3732458698030399e-13  -4.3107921408332509e-13  -4.7765922773777160e-13  -4.5832791292647667e-13  -5.7312977211595772e-13  -3.2197763377057276e-13  -1.3825644641850292e-12  -4.1947073116362611e-12  -7.4417251925952000e-12  -1.0823259927693904e-13  -6.9669944507851934e-13  -1.7945183470947585e-12  -5.6190999195219359e-13  -2.8192057413112125e-12  -2.2915590145396996e-12  -7.0185441151491393e-12  -1.6339033344764588e-13  -1.7882705011991364e-13  -2.5915392579387302e-13  -4.2909204409487642e-13  -1.2077359236136899e-12  -6.1695980214553424e-12  -7.0198712647958153e-14  -8.3668898978579726e-14  -5.4847119155748970e-14  -3.3435291965731215e-12  -4.2909062570754939e-12  -7.6751377879391661e-12  -6.9447543749857767e-12  -7.8985697867912728e-12  -1.0138561646918195e-12  -5.9566352223681157e-13  -2.8525179177847960e-12  -5.9187810454198544e-13  -7.7599861696666447e-13  -1.8054998308561950e-12  -2.7243264981363418e-12  -5.9281635057507107e-13  -7.3383866506807857e-12  -7.6950553514871919e-12  -6.8369512587484602e-12  -7.5776413251070738e-12  -4.6782809542141515e-12  -9.5664903496581503e-14  -3.5134117452453609e-12  -3.3561943293483109e-12  -7.7181111784073606e-14  -3.5531991246899637e-12  -4.5551760317332594e-14  -4.7261640175894721e-14  -1.6133715636441641e-13  -4.6662528017390438e-14  -3.6255823649203162e-13  -6.0913436082874755e-13  -2.8863158402287656e-12  -7.9402184549686176e-12  -7.8571363543929499e-12  -6.6762843692759380e-12  -2.3567564428824494e-13  -6.1747067215984414e-13  -1.4022944087182433e-12  -8.0240022859225155e-12  -1.4962108756885106e-12  -7.0592216315377302e-12  -7.9753525570966315e-12  -7.7730755357693149e-12  -7.1578557232670137e-12  -6.2235747169523019e-12  -6.9859559587834375e-13  -4.2272285192224099e-12  -5.7194641978541814e-13  -5.6311430973529743e-12  -4.1812240154554958e-13  -1.3461379746795987e-13  -5.0137929243551718e-12  -3.3677301044641083e-12  -1.5153784506037152e-13  -7.5767259533370823e-12  -3.4685211172951492e-13  -3.1415873331801945e-12  -2.9368190531045531e-13  -4.4422401446582004e-12  -1.9488945691636184e-13  -1.1489953547016459e-13  -5.6555020854890091e-12  -3.4969234230565310e-12  -5.4788313338375039e-12  -8.0007295902766399e-12  -5.7812180397848641e-13  -2.0750271767415912e-13  -4.5886155861603355e-12  -1.8848477472308650e-12  -2.0366289542885576e-12  -5.4472517336938682e-12  -4.0490035294000805e-12  -4.4556362127229801e-12  -5.0201545065593950e-13  -5.6188601473724978e-13  -3.0147648867018863e-13  -3.3684948284794379e-13  -2.0223588485512311e-12  -6.6237716420468724e-12  -7.5980095763800608e-12  -1.3420778956722103e-12  -1.3343685339030587e-12  -2.5557581460205251e-12  -1.1218594582703779e-12  -5.1734043415530366e-12  -5.7883143078025310e-12  -3.5406891193678775e-13  -3.2095308493121699e-12  -3.5681263754758344e-12  -5.7957120638862098e-12  -3.7704289483899720e-12  -7.8867918780697125e-12  -7.7834433122034536e-13  -2.9766278566523755e-12  -2.2095676299111802e-12  -7.6976977394457268e-12  -1.7330200457878626e-13  -6.4152603337553728e-12  -1.6261291847543601e-12  -6.3073050455373942e-12  -4.4429581944552198e-12  -4.0769420118786903e-13  -3.6551203297388174e-13  -3.3201775540671607e-13  -6.6380512896754373e-12  -1.9755836144013805e-12  -5.3423360533996838e-12  -4.2399698237124797e-12  -1.1263535057247201e-12  -8.2744516190779039e-13  -6.0694896202625478e-13  -1.2780035212634000e-12  -6.1788812487023357e-12  -4.4464206955331317e-12  -7.9524209551199240e-12  -1.5855125833802605e-12  -7.7949730216358778e-12  -8.0126170177356798e-12  -5.6982187878892267e-13  -4.7342208371180914e-12  -2.3824317769468117e-13  -2.4147218074645312e-13  -1.0641739503774617e-12  -6.7670940711612466e-13  -6.5015741624841298e-12  -6.4367040707817082e-14  -6.5789461050593416e-14  -5.0336282012752621e-12  -6.0127738294929832e-12  -6.0354507318920714e-12  -1.1934239726387462e-13  -1.2513099681471307e-13  -9.9026703806758647e-14  -1.0643279027867474e-12  -1.8878579150579478e-12  -6.6187730451172726e-13  -7.9353132044150855e-14  -3.9998100900046986e-12  -5.5917464165363973e-12  -6.7140259583378007e-13  -2.5527197579681001e-13  -7.8401772617002358e-13  -4.7450383944658948e-13  -4.4849690303245926e-13  -6.9194145525343684e-12  -2.7922901671637967e-12  -6.8050142861840703e-12  -7.1044845472243993e-12  -1.8706274154243330e-13  -6.4909122191093229e-14  -6.1087390229418029e-14  -1.2448839824666180e-12  -1.8233826382299701e-12  -7.3773362350085922e-12  -7.3887991272343139e-12  -4.3290895491853085e-13  -6.0404325529392419e-13  -2.7694715720941060e-12  -2.1216323652529016e-13  -6.0334708312241393e-12  -7.8754477556331293e-12  -7.6312399441485604e-12  -1.1139449887664539e-13  -5.4747186430096410e-13  -1.1000984051610194e-13  -6.0734687203273161e-12  -7.3986835313204727e-12  -6.2282385720316296e-14  -5.0281575841614014e-12  -7.7138459916887933e-12  -1.4153990328683571e-12  -2.7008310579047493e-12  -1.6677533752793331e-13  -4.0519055543572414e-12  -8.0064844986617750e-12  -7.8262839524305320e-12  -1.3460302168787919e-13  -1.6998440930399105e-13  -5.7725563619684065e-12  -2.8365699480075304e-13  -3.2201138130686892e-13  -3.7829957542684171e-12  -2.3048689138516140e-13  -2.4139884124260665e-13  -5.4647132570144648e-12  -2.1913383515926511e-12  -4.1127768494891477e-12  -7.1003643304769546e-12  -5.3550336866574569e-12  -3.5483317598006430e-12  -3.8911623690052253e-12  -2.8198515124520820e-13  -7.9741168243303490e-12  -7.4859523654848641e-12  -8.2775799146473567e-14  -6.2563112297580341e-14  -3.9600084896091358e-12  -3.9218435842260638e-12  -1.1653238899062437e-12  -1.1100102418999386e-12  -3.7787729005487980e-13  -4.0092217607098287e-13  -2.3741678758641890e-12  -3.2597411503620147e-13  -4.7873581897254350e-12  -6.5799782141978655e-12  -7.2533304067488269e-12  -3.8866583265443387e-12  -8.0071867629398348e-12  -1.0149616928750066e-12  -2.4819665021166588e-12  -5.5840923775011903e-12  -4.4395783913385096e-12  -1.8434394215876576e-12  -3.8307480129674698e-12  -6.0167610606078434e-12  -2.1501403368876640e-12  -3.8787113259100010e-12  -3.3166596168350249e-12  -1.7295556043558442e-13  -7.5745460566403087e-12  -7.5062595915388415e-12  -7.3910163425575734e-12  -6.9886004439046957e-12  -6.2719093378623541e-12  -8.6708002018498735e-14  -7.8844458528981618e-12  -4.3676174499446006e-13  -6.8283733395806343e-13  -5.4870947189549868e-12  -6.3786230246145733e-12  -4.4710802868053894e-12  -1.8348283196424324e-12  -3.9240442659919445e-12  -2.8478125435302029e-13  -5.1327607020995961e-13  -7.0764639070641391e-12  -3.2569565889865041e-12  -6.8338923520810954e-12  -2.4580031793249898e-13  -1.4485770712920523e-13  -6.0295761085089743e-12  -2.1209513854277316e-13  -4.0378119612180022e-12  -8.0214576315110495e-12  -5.4986685034202973e-12  -6.7234221756729930e-14  -6.1211543720431596e-13  -7.8024514591327305e-13  -1.3082426488888402e-12  -1.0716173292274708e-13  -7.8960293369714904e-12  -8.0340346852407162e-12  -1.1806601017843976e-12  -4.3212702393468677e-12  -7.1149981509359840e-12  -3.4149549910909285e-12  -5.3041751536460386e-12  -6.3940749458535852e-12  -3.1302047019630951e-12  -4.9426408137395464e-12  -7.9085942791665964e-12  -7.6361733463326270e-12  -7.5258228254029456e-12  -3.0454485516928139e-12  -4.3192506899667812e-12  -3.5335695398538862e-12  -5.7633489432627834e-13  -6.5915612083103723e-12  -3.9819551690086660e-12  -4.9265302275118766e-12  -1.5235346026483425e-13  -4.2559324401744678e-13  -6.9080930702766425e-12  -3.6921478217241693e-13  -5.8488285136452451e-12  -5.7184035494396241e-13  -8.6176816482867336e-14  -7.8350559043536256e-12  -3.3484744293566519e-12  -2.2103450634244311e-13  -1.6434524250427901e-12  -5.4115400319667035e-12  -4.3691577333338360e-12  -4.3509467342890764e-13  -5.2656424042561267e-13  -9.9524043525322873e-14  -7.2892231854030900e-12  -7.2314672436527541e-12  -5.1804174783678994e-12  -9.7543119893517773e-13  -9.5134766416196193e-14  -3.5022788524410322e-12  -1.3135328502136462e-12  -5.1300571025904607e-12  -6.3417444364034438e-12  -5.7573611527716697e-12  -6.1710799545677539e-12  -3.2085674991444133e-13  -7.7525859364058786e-12  -1.3630733478428883e-13  -1.4605789871868063e-13  -7.9264381842175450e-12  -5.1496837080169420e-12  -6.5829388518333093e-12  -3.1472060156680058e-13  -4.6641038781252617e-12  -1.8063139586220623e-13  -7.4033755070468937e-13  -9.7797403175187934e-13  -4.6256020798253950e-13  -4.0111242562437094e-13  -3.9701763166432990e-13  -6.9608351625364263e-12  -7.0493065435279309e-12  -6.5025682017115348e-12  -6.3642185461509134e-13  -3.3262162368241019e-12  -3.3079356019043552e-12  -2.3738505371751437e-12  -5.0025800396200961e-12  -7.5207763624779623e-12  -3.3031660201884581e-12  -1.3048436372670249e-12  -4.8660466580387855e-13  -7.3710813417791916e-12  -6.0874968766529963e-12  -8.0041256713347377e-12  -3.5501169076744969e-13  -9.9726540116280230e-13  -6.5048301478393937e-13  -4.4612308748825324e-14  -2.2177614740961322e-13  -4.5350429236931377e-13  -4.2082770630261687e-12  -7.2806017558487385e-12  -2.4166565635731222e-12  -1.6591954086642314e-13  -8.6796702979856963e-13  -3.4475998882629387e-12  -6.1069891405864040e-13  -4.5233502662056293e-14  -5.7738442242197885e-14  -4.0649290946544523e-12  -5.2453251100085169e-13  -7.5772968471682601e-12  -7.6998115786750489e-12  -2.9247079861365132e-13  -2.7989005488775192e-12  -5.3566353769454545e-13  -6.0409006781372899e-12  -7.5933869965978232e-13  -6.9766685530529491e-12  -2.8615879882117723e-13  -7.6454954545205936e-12  -6.9763044918931888e-12  -3.8336846863440112e-12  -3.9722846198200819e-12  -4.7637446731508809e-13  -5.7044171439081535e-13  -3.1451684254096684e-12  -7.9009992103375587e-14  -5.6516763725622724e-12  -7.4252166975757988e-12  -5.2171370354849479e-13  -3.4193833512476658e-13  -2.0085057767097349e-12  -6.6860884703727708e-12  -1.3539343723884080e-12  -1.2885610197756293e-13  -4.3786915325475527e-13  -4.5619703278361860e-14  -1.4481052854958149e-13  -1.4369399625487730e-13  -1.9208670053697225e-13  -4.5814806597637235e-13  -8.6089248053453946e-13  -3.4175064497695068e-13  -5.6592994672849372e-14  -6.0455086062479082e-12  -1.2668118418303071e-13  -7.2691740232833588e-12  -7.2777066911362821e-12  -5.2644130431451073e-13  -4.6896411132924597e-12  -3.6076105941358825e-12  -1.1532205173553300e-12  -9.9425680165091600e-13  -1.6625910364165423e-12  -9.1483928420858933e-13  -9.9471552643667809e-13  -8.0758135637958292e-14  -5.6621529437440970e-12  -7.7472847387152874e-12  -6.1462151968231810e-13  -2.0234005519764959e-12  -4.9510307198832063e-12  -9.8130731161623686e-14  -1.4382343968420427e-12  -2.4046961540388566e-12  -1.9866558271079966e-12  -7.2983595287823598e-12  -6.4292484437546514e-14  -2.5019335361039571e-12  -6.2131218960249339e-12  -5.6174823053151729e-14  -4.5328429487316405e-12  -3.2948781712388459e-13  -2.7038743770286701e-13  -5.7940537509204397e-12  -1.1512076375193955e-12  -4.7774282512524617e-12  -3.9656475391203454e-12  -8.4083304042390393e-13  -5.8403267809776051e-12  -8.0308587455034769e-12  -6.9641470614170222e-12  -1.2910483657003906e-13  -5.4360564647436321e-14  -7.7196349014394989e-12  -4.9837731835711878e-12  -6.2246343898271723e-13  -3.5253266414484788e-13  -4.9496534529782284e-13  -4.7458454233368021e-12  -6.7753036604535504e-12  -7.8704540099434878e-12  -4.8222329366072833e-12  -7.7676787481530450e-12  -2.1263413187578095e-12  -5.3093783466716340e-13  -2.2801054299290443e-13  -2.2734906426148548e-13  -9.3533086234442210e-13  -7.8956481535342099e-12  -8.1748075063782461e-13  -5.9372641170635098e-13  -6.1774176882776221e-13  -1.6146767059610537e-12  -8.7560110797489317e-13  -5.8295930136182865e-14  -4.5569284191452450e-14  -5.8217028184028611e-12  -7.4380356372557131e-12  -1.7007345379555941e-12  -7.9923233446222193e-12  -1.6195842777748603e-12  -3.7324794097830590e-12  -9.5380573789334926e-14  -5.0465466990301025e-13  -1.4247843906458182e-12  -9.1721157726879182e-14  -1.4135390121640577e-12  -6.5825846489876245e-12  -2.7998131670592476e-12  -1.6684976577687083e-12  -1.8785637930269650e-12  -4.7732667099361224e-13  -5.0938172547545229e-12  -4.6685488951648071e-12  -5.9287589737746905e-13  -6.0234160170528519e-13  -2.3069526591663457e-12  -3.9275464668170987e-13  -1.6162670580907033e-12  -8.5376473532674409e-13  -6.1009779346114891e-12  -5.4893000166978765e-14  -2.7587306299385751e-12  -3.7060100828597853e-12  -3.8283498997140579e-13  -9.9199776607940573e-13  -7.9064190911837806e-12  -5.0667484243318629e-13  -2.7532523660807820e-12  -6.2442200836378041e-13  -1.0809945965883390e-13  -1.5122469708428515e-13  -5.1418933738569062e-13  -1.5049896703893606e-13  -3.7952434314861549e-12  -7.9224818275938532e-12  -6.0271030627988030e-12  -6.6879977400486352e-12  -7.4584578437839034e-12  -3.3495197463470988e-12  -2.5563355778888761e-13  -3.7613239438910767e-12  -6.4188083255479628e-12  -6.6662241360049177e-12  -8.8610116744282451e-13  -1.1731712907837459e-13  -7.0284568501070565e-14  -6.1317223479698247e-12  -7.6691069035925480e-12  -3.9035215224657444e-12  -1.7317755026875777e-13  -4.5057528111662055e-13  -1.6402252522617025e-12  -3.5293039048339968e-12  -2.2425486680907813e-12  -3.7642361786260249e-12  -3.3767126612050192e-12  -3.5114384577846833e-12  -7.9728196181121003e-12  -3.5370280001427104e-12  -1.8030174133758095e-13  -2.2999637904580036e-13  -2.8528295810307563e-13  -4.9953376177014539e-14  -6.3144119513104030e-14  -1.0007260427431616e-13  -6.9367850335037393e-12  -7.4725934505687341e-12  -7.8170188784405906e-12  -3.5692202156280886e-12  -4.9723985298177544e-12  -5.4435310757718622e-13  -1.8486486277767918e-13  -7.0835049882901246e-12  -3.3158570402317012e-12  -6.0043936617191739e-13  -4.9072614013323261e-12  -5.2141563178494145e-14  -6.0341676601902991e-13  -3.3895172087677962e-13  -1.1306921437041591e-12  -2.2131292503996565e-12  -3.0826217069581906e-12  -9.1760144218973509e-13  -9.8193873478063670e-13  -1.1160857019961250e-12  -8.0120778154870513e-12  -3.4005945966701501e-12  -3.6370865126467533e-12  -3.0560470774998357e-13  -7.3239878593730527e-13  -4.8261594783500360e-14  -1.9877617493660174e-13  -5.6497888744764727e-12  -7.7257017485637777e-12  -3.9258823546644496e-12  -3.7331452323696751e-13  -4.0555583042437669e-12  -2.4088570696326276e-12  -4.2461275110446791e-12  -2.9015204322649437e-12  -7.6938432100580652e-13  -6.1280246951648087e-13  -4.8183314241047205e-12  -4.0211648939097759e-12  -6.7618088283629116e-12  -7.4239331052702141e-12  -6.1496538408314501e-13  -6.4496600838240318e-12  -8.0123461069263957e-12  -8.0237312529034675e-12  -7.9964738237822358e-12  -7.8470198246618432e-12  -4.8411350497681290e-12  -3.6221187221586059e-12  -1.0481120656235031e-13  -5.7492009925146814e-12  -7.1324177700889992e-12  -1.7754170044613708e-13  -4.6876695257655646e-12  -1.0800120192812862e-13  -8.0306782791082831e-12  -6.6187616843314492e-12  -5.1958974153445273e-12  -6.5462965831668129e-12  -4.8954982431382384e-12  -6.9665854657149335e-12  -3.6608647000602740e-13  -6.5130218532813915e-12  -6.1884947457618629e-12  -1.8649274279301420e-13  -8.3115681595843433e-14  -6.1526362273963392e-12  -1.1861705258570784e-13  -9.8346803445029588e-14  -7.8658313231609959e-12  -6.0089197633067724e-13  -1.7127979405411232e-12  -1.1767174665527656e-12  -1.6644715052784975e-12  -5.0089927049491519e-13  -7.9313464960926400e-12  -7.8378387480755241e-12  -5.4039699671310733e-12  -7.4639271636778069e-13  -5.1611663043962907e-13  -5.6844422194706373e-13  -3.7924706137950959e-13  -6.0358494545655160e-12  -7.9420173893405486e-12  -6.4804106046719801e-12  -7.7393370470399268e-12  -7.1517270988170308e-13  -7.4690490286381203e-12  -7.3165360171936106e-12  -4.3861214830136676e-12  -9.2959937847759456e-13  -2.2618106016948212e-13  -2.0542518291328685e-13  -6.4888491311725248e-12  -6.8217339366263075e-12  -8.0262010704416230e-12  -8.0053862766914276e-12  -7.8678243882297098e-12  -2.7214169537100385e-12  -1.1469630047063479e-13  -5.2727476091158942e-12  -5.1448114037387600e-12  -5.5264979198071406e-12  -5.7819544225741415e-12  -5.2182589165576903e-12  -4.4751454141388441e-12  -3.0173475099541627e-12  -3.5394435714624585e-13  -4.0366025564041486e-13  -5.7771436200733707e-14  -2.4760298479410853e-13  -7.6430426782588978e-12  -7.9497707790312615e-12  -7.6019802889837242e-12  -2.0370940861896054e-12  -1.6568906542220849e-13  -2.9394232129133712e-12  -3.9621801331891902e-13  -4.0381257911256755e-12  -5.5372546528929894e-12  -1.9466246761130022e-13  -2.958259