<?xml version="1.0"?>
<VTKFile type="UnstructuredGrid"  version="0.1"  >
<UnstructuredGrid>
<Piece  NumberOfPoints="6486" NumberOfCells="12696">
<Points>
<DataArray  type="Float64"  NumberOfComponents="3"  format="ascii">0 2.5 0  0 0 0  2.5 0 0  2.5 2.5 0  1.25 0 0  2.5 1.25 0  1.25 2.5 0  0 1.25 0  1.25 1.25 0  0 0.625 0  0.625 0 0  0.625 2.5 0  0 1.875 0  2.5 0.625 0  1.875 0 0  2.5 1.875 0  1.875 2.5 0  1.770833333333333 0.7291666666666666 0  0.7291666666666666 1.770833333333333 0  0.9375 0.625 0  1.875 1.5625 0  0.642361111111111 1.163194444444444 0  1.341594827586207 1.883979885057471 0  0.46875 0.46875 0  2.03125 2.03125 0  0.3626104797979798 1.513178661616162 0  1.381740196078431 0.4564950980392157 0  0.9375 2.172619047619047 0  2.172619047619047 0.9375 0  2.096354166666667 0.4036458333333332 0  0.4036458333333333 2.096354166666667 0  1.684027777777778 1.163194444444444 0  0.3418803418803419 0.8693910256410255 0  1.642742622813391 2.162164207604464 0  1.275619849389031 0.8465650753054845 0  0.9136284722222221 1.434461805555556 0  1.732437511238546 0.3406962303960658 0  0.9714402568595876 1.029779313093998 0  1.52281746031746 1.485615079365079 0  2.1875 1.71875 0  1.06819722569879 0.2997236128493951 0  2.136114211309524 1.303478422619048 0  0.3125 0 0  0 0.3125 0  2.5 2.1875 0  2.1875 2.5 0  0.3200021620376328 1.192323085056694 0  0.6738456129277992 0.8304377375553881 0  1.757891808928991 1.861952730357003 0  1.5625 0 0  0.9375 0 0  0.3125 2.5 0  2.1875 0 0  2.5 0.9375 0  0 0.9375 0  0 1.5625 0  0.9375 2.5 0  2.5 0.3125 0  0 2.1875 0  1.5625 2.5 0  2.5 1.5625 0  0.7448220909826522 0.3003573636608841 0  1.027298850574712 1.871151477832512 0  1.331260495098891 2.197262878816185 0  1.207917681892289 1.582765010956622 0  0.4339993447432606 1.801186844743261 0  0.6337298768939392 1.443093039772727 0  2.049851190476191 0.6826636904761904 0  0.6584821428571428 2.219122023809524 0  1.89575676467455 0.9798457973793544 0  1.437570562095628 1.059380588255917 0  1.502090052505845 0.6987070896496241 0  0.2040860661083546 1.705323965099331 0  0.2083333333333333 0.46875 0  0.5070952039991439 0.2211150679997147 0  0.6916302856529919 0.5813591430410241 0  2.265625 1.953125 0  2.2265625 2.2265625 0  1.886424081252096 2.243391360417365 0  1.40625 0.202164758520858 0  0.2269345238095238 0.2269345238095238 0  1.152730869673694 0.5225850378741401 0  1.885631899587912 1.312095130148776 0  1.614808884009367 0.9049784971014416 0  1.890095442220658 0.5126535558463003 0  2.323168682795699 0.46875 0  2.268811725689575 0.2304742875213018 0  0.6002389442105756 1.967426444210576 0  0.1768313172043011 2.03125 0  0.2311882743104251 2.269525712478698 0  2.03125 0.176831317204301 0  2.280262553344767 0.6954945504579233 0  1.979219539285994 1.809922269642997 0  2.336309523809524 1.09375 0  1.09375 2.336309523809524 0  0.9314042474388009 1.662973812215543 0  0.1634067999087722 1.40625 0  2.337090640094896 1.40625 0  1.141616997467638 2.069311773587991 0  0.46875 2.338939559681489 0  1.542440307908715 1.734944797244472 0  1.556713687786879 1.956977865354753 0  0.8264238995344066 1.975424467820646 0  1.466326331454725 1.275271369760862 0  1.655675324257095 0.5444159974393489 0  0.3385416666666666 0.6479255698005697 0  0 0.78125 0  0.5236073939200119 0.984090461540625 0  2.091665741047893 1.519793517904215 0  1.71875 2.5 0  0.5356538886262603 1.623137930505009 0  0 1.09375 0  0.1932884281517095 1.015625 0  0.8569313582417669 1.2198915584249 0  0.8876981284879677 0.8329884081524883 0  1.115618488474214 0.7219586973356271 0  1.186950366204949 1.043465130075318 0  2.057459118787237 1.110823087309335 0  1.830651283878689 2.049810069572418 0  1.689107969301489 1.367247437031697 0  0.4921048768039656 1.298643370653124 0  0.8213975694444444 2.336309523809524 0  2.03125 2.5 0  1.049729400480002 1.283723261332814 0  1.308101375801673 0.6489479469700392 0  2.5 2.34375 0  0.4968777175037714 0.7562964879736076 0  1.40625 2.5 0  1.501347663534097 2.307027627307738 0  1.602813712048603 0.1926218191360736 0  0.8393082906308107 0.463778306132633 0  1.682663349152719 1.598471865581041 0  0.7774174680851571 1.560004941327907 0  1.554204170364662 0.3898593897892066 0  1.842184459051087 0.186443880058197 0  1.358107417651776 1.696381759610015 0  1.18859291992392 1.77598670078022 0  0.1875331222687418 0.7609599743339348 0  1.339536743965101 1.422080365801479 0  0.7788179348750389 0.9955343414928611 0  0.9062978492805438 0.1919636509126373 0  1.256007360640958 0.3160320559396114 0  1.09375 0 0  1.174986727221844 0.1594990293443933 0  2.34375 1.796875 0  2.318026474511116 1.589177949022232 0  2.34375 2.5 0  1.672742954892153 2.332882724550692 0  0.2683637361947215 1.874801596909639 0  2.174770749820102 0.5581009131310781 0  1.443279522965991 0.8870068372898454 0  0.3385416666666667 0.3571428571428572 0  0.78125 0 0  2.060421048269335 2.314363248763811 0  1.088078737088509 0.8967352118723447 0  1.087825368444708 1.454931510884769 0  2.018308232129541 0.8548495425854904 0  1.943987311736842 0.3246298523011434 0  1.71875 0 0  1.85337849796276 1.144833312386208 0  2.3486328125 2.1044921875 0  1.407588788651747 2.042968789119587 0  2.336309523809524 0.865366648092144 0  2.34375 0 0  2.5 0.15625 0  0.15625 2.5 0  0 2.34375 0  0.1638044648294291 1.242263417405867 0  0.356216654757926 1.032569427322806 0  0.3188217956111817 1.355736727000647 0  0.5924956460852111 0.36112522004736 0  0.6594216488965849 0.1603472116132387 0  1.841804599497131 1.72214349266521 0  0.15625 0 0  0 0.15625 0  2.115898634821499 1.894570904464496 0  0.7821877980253907 0.7129993435924866 0  1.003820447087786 0.4516053462784233 0  0.477562948779147 1.138333049293613 0  0.719493678605015 1.305655360135975 0  0.9772457618587566 2.020350128938537 0  0.8764738248887107 1.826219722709673 0  1.254787875123819 2.339010653832026 0  2.343597354852534 1.249982759769001 0  0.78125 2.5 0  0.46875 2.5 0  2.5 1.40625 0  1.09375 2.5 0  2.5 0.78125 0  2.5 1.09375 0  2.03125 0 0  2.5 0.46875 0  1.40625 0 0  0.46875 0 0  0 0.46875 0  0 1.40625 0  0 1.71875 0  0 2.03125 0  2.5 1.71875 0  2.5 2.03125 0  2.005424054645407 1.653223486966518 0  0.1538730573856537 1.559850281736677 0  2.33984375 2.33984375 0  1.166539506212474 1.922878979538754 0  0.3914885633949916 1.65887232812171 0  0.5795503163042564 1.766243562569382 0  0.399533125920212 1.946786875081388 0  0.7866324979014098 2.127719094551316 0  0.3654683023546834 0.1495701132219454 0  0.1527388747131078 0.6116379440619215 0  2.013737577140188 1.391056634712135 0  1.17635437372994 2.213329084238133 0  1.737118141866284 1.010577140843115 0  2.200707118087222 1.164723314085963 0  1.697018908736685 1.993548551451517 0  0.5387621649009668 0.6070503962352419 0  2.032805785855952 0.5330427622570983 0  1.082699501358059 1.667818725183932 0  1.503819781540653 0.5468420196858188 0  2.015409142866072 2.175941657590429 0  1.752057611265444 0.869642097111018 0  0.612251684107783 2.356045720700959 0  1.902817102342857 0.6607642211999982 0  2.159616561739693 0.7867739969338844 0  0.5120038350106624 2.197302352398502 0  1.888200216011548 1.919501662489862 0  1.495909909726654 2.16028358757309 0  0.489139876703609 1.443203008943564 0  0.8819175670410521 0.3301172743913011 0  1.882591144370812 0.8155965192707721 0  1.133979796994841 1.172526771862882 0  2.206217447916667 2.084147135416667 0  2.20361328125 2.36279296875 0  1.395746985657004 1.556054166359645 0  1.704383111516207 1.734750450338683 0  0.9575737847222222 2.36274223823052 0  1.035150984253136 0.1302833343179028 0  1.383966125325753 0.7651479963479179 0  1.64003252158672 0.6824316405528895 0  2.22550785055421 1.487078576356817 0  1.760964431499756 1.48495222505201 0  1.276460980673788 2.004207003584658 0  0.1341477688427096 1.828777507920502 0  1.542261434180652 1.155296658359034 0  1.334627911613854 0.9696897472490321 0  1.30794231473696 1.119420615785191 0  0.7028260459857245 0.4438906910721139 0  1.625757433094055 1.84268057552138 0  0.9818707849053143 1.165603626132254 0  2.0086489901463 1.243134585689553 0  1.934584460420609 2.374094051915812 0  1.798434376789567 2.38671361912528 0  1.206314791201715 1.382064292497919 0  0.6333752893366955 0.7023738550008095 0  0.7796219811205605 1.42573253164258 0  1.564399711917382 1.026040828857629 0  0.3385416666666666 0.4889012896825397 0  0.1041666666666667 0.390625 0  0.989112246382566 1.543537365516289 0  2.025724425454636 0.9846960595520872 0  0.6602885475034063 2.086117390485779 0  1.607130551925032 1.267198646640915 0  0.1317864544877056 0.8896173683400176 0  1.755387840017567 2.230364320056445 0  1.301540702984401 0.1216289692748247 0  1.433170657577442 0.3331052752740999 0  1.500459610550388 0.113513924782439 0  0.6494291520606965 1.029586599619295 0  1.010146149868299 0.794897284196169 0  0.3700844198238017 2.235390157870766 0  0.3360891767780704 2.36656279435396 0  1.876856241037701 1.437150669863757 0  1.778674102957329 1.245979347269706 0  0.5472829890977179 0.1005517127039925 0  0.4669074189005698 0.3416784232954367 0  1.472765289289269 1.850899166481903 0  1.555853593327178 1.608452097912802 0  0.6708955559113426 1.646561631116984 0  0.8164699620322933 0.5924479455478063 0  0.3167738989468366 1.758696809749795 0  0.2788007305565096 1.605499483471246 0  0.7821720982350511 0.181524936294752 0  1.376812251214195 2.313340247908297 0  1.785652202614777 0.5962261755537186 0  1.761467296310972 0.4679567244718574 0  2.2265625 1.8359375 0  2.3828125 1.9140625 0  0.5279531607054191 2.071552361614785 0  2.397573269551114 0.234375 0  2.383578172599618 0.3589298466020009 0  0.1024267304488855 2.265625 0  0.1164218274003825 2.141070153397999 0  0.2696857594953064 2.135405441512016 0  2.164961300137334 0.1375322943529536 0  2.137757548369486 0.2724194778647587 0  2.238873711826398 0.3626419179496562 0  0.1001414910226386 0.234375 0  0.2176339285714286 0.3478422619047619 0  0.2503620791333544 0.1061694061057066 0  2.336445461915368 0.1250451055247424 0  0.2154004640409726 2.3918124
[...]
<PointData  Scalars="f_49-2"> 
<DataArray  type="Float64"  Name="f_49-2"  format="ascii">5.6578297948271787e-59  7.4922481916126702e-21  1.3099793847392655e-64  -3.2953446743483251e-74  -4.5148009784129133e-37  -1.1837350770916710e-65  6.4825502475701660e-65  -4.5285722922469730e-32  -1.1463880163160341e-37  1.9176129934340125e-21  5.6655697154405646e-26  -1.6315850080076822e-62  3.1592745851582182e-45  -5.6240931337029999e-68  4.9106179828393303e-52  1.3884740948040939e-69  -6.3483335072490019e-68  3.6280459150676267e-48  1.4332437036224922e-45  1.1718286875376085e-28  -1.3984112381599630e-52  1.9272666082670728e-32  -6.6878298864734133e-50  -7.2193782276041510e-19  -1.6949967915743394e-60  8.8881579898797924e-39  1.4475065351220398e-40  4.7412128004351991e-56  -1.6965689239235145e-59  7.8732456360932388e-58  -5.6686112462629339e-52  2.1472360522322811e-46  1.6179403778991957e-25  -1.8745469584204404e-58  3.5607523797209625e-36  -1.3230797122451295e-37  -2.6652936329644070e-49  -9.6771937334817403e-31  -1.4634099775630851e-44  1.9512285234852467e-61  6.6060967996009623e-33  -1.3979659875374481e-57  1.9199587661101810e-23  -2.4001048431806401e-19  -7.2532223226274848e-71  -3.6621436539785719e-71  1.3904264459498812e-31  -1.3007703887028939e-24  -1.9252355183595399e-54  6.2323217144439399e-45  1.4344974620689399e-31  6.4626591875254171e-61  1.8533566155135400e-58  -8.6009168285223054e-67  1.7614552909078591e-26  -2.3788558017142142e-38  -4.5911198754726178e-63  4.6506717767006511e-67  4.0822337158371498e-52  -1.4863501306966280e-66  -1.3984431607480095e-67  1.3452789607814836e-27  4.4926587427743900e-53  -2.5577972842149671e-58  -6.8470895890952693e-43  -8.2848513152665443e-45  5.5346894055235254e-38  7.3435885082023376e-56  -3.1677531377987198e-55  -1.4020025560425396e-50  -1.5797264757376132e-39  -1.0952374386691713e-41  -5.9046151310361540e-42  -6.0544058915482294e-18  -4.0076859166232643e-22  -1.9053192066064932e-22  -6.5637241168245400e-64  -1.1346947846301400e-66  -9.9704757673881233e-63  -1.3106531740994264e-41  1.5683858656888662e-18  -2.5131233515331791e-34  2.3180266761006155e-51  1.7885964016474847e-45  3.4815336487659424e-53  -3.2809112069160804e-63  -1.2035663167774932e-61  -2.1997128446042817e-49  2.4281012487048690e-49  1.3387916476121580e-55  -8.1449159129391561e-56  -1.6921285921406000e-62  -9.7420333123422435e-57  -2.8058549525711565e-62  -1.6368779895061426e-60  1.5048410342638328e-43  -2.1861517078143824e-35  -1.1154881593695206e-62  -2.4751149989009761e-54  -6.7302536813905097e-59  -5.3737696910694283e-49  -1.4094928649955109e-53  3.9392212771454847e-51  -2.8700777015040747e-41  -8.8974834705147363e-47  -2.7256573203575727e-20  1.5165050221300122e-23  -1.1512811123913874e-27  8.2407436651589581e-58  -1.5518381895505409e-66  1.4149800916401748e-41  -1.4831872752250009e-29  9.9180330343267098e-28  -5.3892841211676030e-33  -2.6371188069358960e-27  1.7965788352926042e-32  -2.5338500599011913e-34  -6.0981355063073079e-56  -4.0599669100905175e-58  -3.7317039473220467e-47  4.3026369715855559e-34  -1.1702335414548395e-58  -1.7270619928460770e-69  -6.0857784159590061e-36  1.0263060270385492e-36  -1.2434653589983658e-72  -2.4968114556385372e-22  -2.3767558992123996e-65  -5.7187251559578450e-61  4.2007388017835882e-47  -1.1277525094861360e-26  -8.3174519430476252e-49  1.7034382746451223e-41  6.1635674373520663e-45  -6.3958580776616960e-52  -1.6517288432435404e-46  -1.5601065123697329e-46  7.6637199432514085e-24  -3.2442463813441451e-41  -5.3762719089867737e-28  -8.7167596693592550e-31  -2.0015501362516057e-38  6.0641942902410514e-35  4.9127186588647437e-36  2.6313790689723343e-65  1.9996484225793788e-63  -8.1121238077709032e-73  -2.5474630512792874e-62  -4.5297633866173750e-46  1.2657048780526231e-60  6.7745116037736321e-40  -2.2775219262085838e-17  1.8580276714404249e-28  -3.5008155125505345e-66  -1.9015865091428402e-31  -2.1991744890285027e-39  -1.5020930815485289e-54  3.0939026829385666e-54  -1.5374130767810827e-47  -6.9940097837330283e-51  -3.3681641057294347e-67  -8.7162042689024890e-55  3.0018601868897245e-62  2.6363607940948951e-61  -4.2528229391416262e-66  5.7982723236376212e-60  4.4734762292893241e-56  1.7240404768037361e-32  9.3271727398724990e-29  5.9322339570321395e-35  8.4067232106534117e-22  1.6285428494785631e-26  -2.6330152308068937e-53  9.7384866536550863e-22  -2.1624439085021442e-20  -1.6607014540041720e-60  -8.6802794932315652e-25  -1.1876096381526816e-30  4.9290557840872300e-31  -9.2565930816198428e-36  3.0164764245082606e-52  1.0773075094154243e-47  -1.0547292888906780e-61  -5.4190573810552932e-62  -1.3017776815971346e-62  1.6949459108327028e-62  -2.4826102807093653e-66  -5.0319909309602084e-65  3.0021431907010053e-67  -1.4319668635402726e-66  -1.1603001707845373e-55  2.5486180262417864e-68  2.1340561056433916e-41  1.9798730671291691e-24  6.2339994860483073e-20  -7.9074049105867986e-35  2.5950204970102325e-44  1.6322052631324204e-48  2.8117471525494644e-68  -7.8443320288245555e-70  1.0990490565257160e-57  -9.0910124904342479e-39  -1.1027489903245991e-69  1.9996494039160816e-51  -1.1443292711300044e-41  2.6110512916885768e-45  -1.3399237510146828e-48  -1.6006540942784035e-54  -8.4362384385310391e-22  1.6231573409912293e-21  8.1249729850253005e-55  -1.2040508344298366e-57  -8.9295889979481145e-48  -2.1719127897803622e-58  -1.9906202511621271e-55  -1.5708226644144156e-20  -2.1915159987061028e-56  -1.2637665528911144e-43  8.0836093541368744e-43  -7.4185900740821178e-63  -5.8441140816343115e-47  -6.7456962027185629e-59  -3.7585682824012061e-52  -7.7477058621313755e-58  -2.9936210424464075e-54  -3.6393129019430987e-57  -5.4948653217574731e-58  4.1209679341377875e-37  2.3308128239464406e-29  -2.8818912123646495e-50  -6.4356842335541799e-35  -2.3458352095305026e-64  -3.8543014291212530e-69  -4.0015756607313085e-44  -1.8195615989079134e-51  -4.5940862839655690e-61  3.3042631896640733e-33  9.0456792666632228e-40  1.1679962823552017e-44  1.2627034086865407e-60  -1.1419427669177086e-49  -1.3118342461191876e-52  -1.2161992882343951e-44  -1.5566586545309991e-42  -2.8284280160554749e-38  -1.4096739983040582e-37  7.2955752976861607e-24  -7.2497926132796000e-52  -7.0462682243784810e-33  -1.8453120767806449e-54  -5.3835610387917563e-66  -6.0407703257370918e-65  -9.1783918285307419e-39  -1.6393540209965146e-22  -4.0314783799337072e-39  1.1469738066934423e-42  -8.1312879766052349e-18  1.9123603191307077e-18  -1.9349262046279929e-40  -7.2145128831640877e-54  -1.6329248990657075e-52  -8.5646630150351768e-45  1.7244605877664187e-25  -5.6293723154861032e-61  -7.6872089341704766e-40  1.1671632450354309e-41  -1.8301603849865629e-43  -2.2180809169417727e-28  -1.0184174142332030e-29  7.8093186974043838e-56  1.0195768235712533e-58  -2.2036238553869409e-52  1.0845996597706019e-48  2.5772622331250857e-25  -1.3387609082847264e-19  -9.6730740379997913e-51  -2.2930411128961815e-47  1.0060027529143145e-42  -4.7383542408591739e-25  -1.2446573300160617e-43  -8.6830751306164173e-40  5.9129392353255360e-30  -1.4512060519805288e-61  -2.0973502420751221e-49  -1.2219956229088371e-49  -2.6601799337930950e-62  -1.0688375267674173e-66  -3.8973918875169022e-51  6.7468446207597290e-65  5.2004432324197209e-65  2.7142616144616091e-54  3.0018495809484017e-51  3.3417055197516777e-52  -1.6519729962001850e-58  -2.6823634379523427e-58  -1.5461299136854789e-60  1.0049478055147355e-18  -7.6183492339745076e-17  1.3185271722238431e-20  2.7530656387586857e-62  1.4450765448291888e-57  2.6963017838622290e-57  -2.8320278883284606e-20  1.4241210113244197e-48  -2.9593343244738979e-31  1.1234507912657434e-35  -3.1387301661523625e-37  -6.8807053280996556e-49  -1.3521930100545262e-46  -1.8816324134560731e-30  5.2206940529660620e-47  -9.0113107933995858e-54  -4.4080606322469363e-65  -5.3070854884388569e-65  -3.4209966970098282e-69  -8.7348602515135874e-21  9.6930372094325400e-49  -3.8242999224944239e-47  -1.0213695929343694e-42  2.5421842795991064e-60  -2.4515122683991603e-43  -7.5149119787564287e-52  -1.0433606498742179e-24  2.0624110354014779e-44  1.4236500809483817e-46  -3.1009969228437752e-60  1.2961352016084988e-29  -1.6253453554729944e-59  -1.5447566607697772e-56  1.9045463204605909e-30  4.8078921430614936e-63  8.5587216874016575e-23  4.2147575832256026e-34  -4.3533705655736622e-58  -1.8232373531617799e-58  1.7650532745642631e-55  6.9074956481126695e-63  -1.5899982589116054e-37  -1.1911463161974082e-33  -3.5319672696046157e-65  -1.9333374632663389e-60  -5.6262004096081363e-30  2.3360436187477458e-46  -4.6584506084156251e-45  -1.5931993290683042e-60  -1.1895921575908768e-49  7.3016821622189003e-66  -3.8235019135459392e-56  -3.7164377955721867e-40  -3.2215298221851514e-60  -2.6852183781558927e-35  2.9627604222111174e-23  -3.9656544633905793e-19  -2.6447825763264757e-19  -6.9747596782084056e-48  -2.6830796884584746e-40  -6.5945222820254134e-31  -3.7087089954104292e-64  1.5092238229023626e-64  -2.4824546203032127e-63  2.0027827849596083e-57  -4.2387767253040770e-72  -2.6670183384242287e-55  6.8873081024202768e-58  -1.7113183099069538e-39  -7.0308031224594229e-69  -1.6853563336587224e-44  -5.1448276566627525e-58  2.5496002062685884e-53  6.0468589197971556e-50  -1.6637277524843033e-39  -1.7304171274933804e-36  3.5184736921715933e-19  -1.3914141548506625e-64  -1.0371067201347569e-46  -6.7199064949368916e-33  -7.7229075964002580e-34  -8.7148582451572927e-65  -8.7832059853176521e-26  -7.4892085537664701e-27  -8.2349607369174767e-26  -1.9711307882900210e-29  -8.9303534400946552e-53  -5.0827169019806141e-35  -1.8466093253453110e-46  -1.2762816885768567e-41  -1.8010339662116782e-51  1.0160803395262661e-54  8.7304127225338331e-61  2.7740289004801985e-40  4.1540742584715467e-38  9.2518505536435400e-25  -7.3363751010702104e-57  2.8326393755021411e-26  -2.6711487849618292e-28  -1.6656015799167668e-62  -1.2651826073006411e-42  -8.7566060113233904e-47  9.6051157813948636e-64  -2.5396932893143426e-37  1.8056786170155574e-20  2.3310931469923324e-27  -9.8245698890135115e-53  -4.2106259005001780e-56  -1.2942100042330787e-42  -1.2851710171485245e-56  -4.0920249570419192e-63  2.8410530783675291e-40  -8.3183683074351366e-24  7.5950772734445078e-63  3.0856305818911560e-34  3.5461937730300564e-35  -3.5418948566060235e-33  1.2938023191883344e-60  8.4907380628525224e-44  1.2550841890052955e-39  -6.1625009687803667e-50  -1.3285156598403644e-20  3.0175710024359710e-31  4.3063295138752507e-63  -1.2553625806422884e-36  -5.2261894359694887e-52  -4.1331833772664231e-55  -2.0129256339500919e-59  4.3471216801632876e-36  2.0606630317133573e-32  1.8323272010493607e-47  -3.8668256717864481e-51  -6.9173187376082630e-56  -4.6384855481874149e-59  3.2104885932473733e-27  -5.3361465276093231e-41  -4.6893432237093049e-61  -1.5742084004069802e-57  -1.6936085561182158e-56  4.5785550393642872e-38  -1.8580219559479684e-51  -7.0368025173417482e-41  -5.8353869158429645e-55  5.6184792658256892e-28  3.9627423508202522e-62  -2.5744460475128768e-42  -1.7861729626100968e-31  4.6350012609760512e-51  -4.5839867905898261e-71  -3.2368790400882796e-26  -3.1339975502023248e-49  -2.2834142502454272e-39  3.1163136812632415e-31  9.9575434642251718e-60  -1.0346236480200712e-44  3.7940676728268189e-29  -7.1054442910899112e-59  -1.3982768579086558e-66  4.6397378777105453e-61  -1.6406643564688528e-64  -1.9601882780942192e-29  -5.8315370325314500e-22  -6.3247478325947176e-38  5.6674240687524355e-24  -2.4804443879973845e-48  -2.3283478139608393e-44  3.2394454759447841e-33  2.2758693045525331e-57  -2.4423040311997390e-56  1.6157351097466460e-35  1.4102993322640761e-60  3.7371655982833754e-27  2.4526958914958419e-44  -2.3310756670367114e-22  -4.4849244200858832e-54  -2.1204458789475825e-25  3.8656073096389953e-27  -1.3597921801355305e-35  1.9211235677098157e-40  7.6611627459859016e-40  -1.3437942775244529e-47  -6.8391825409540241e-49  -2.2328979333387195e-44  1.3840659917147614e-23  3.7457785019350911e-61  -8.9696924091428138e-65  -5.3271679971639988e-67  -1.2689349012193292e-56  2.7008374929903476e-32  -3.8311914519528040e-66  1.3325726459387732e-25  8.5191249186039345e-35  -2.2806977140637601e-32  -2.8462190689516664e-53  1.0220839275535061e-39  -1.0835314705378914e-42  3.8024575000533736e-59  8.5105961750556022e-42  3.5208871305747420e-66  2.6205076870020792e-63  6.7077223268601101e-52  -8.5283013849486339e-61  -7.6534234966238629e-47  -2.4587014970652858e-62  7.9841404817837620e-56  2.7747204561917276e-44  -2.4953963147524945e-35  8.1996031475642058e-24  -4.2059009118801182e-69  -3.2895380653613003e-65  1.8929995019426209e-62  2.2441121788288439e-31  -1.3321863707837753e-45  -6.6648689111826540e-44  -1.2905765899061828e-48  -2.2979823787386773e-67  3.8221385217212072e-31  -6.1462710372956199e-56  -3.9736863296425714e-29  6.4233496278245142e-29  -1.1014232940809315e-53  1.7836964604051280e-43  -2.8342241776544295e-49  1.7701628302631018e-60  1.9250884234237964e-60  6.5056103224908421e-35  -2.7831680168691261e-27  -9.2500478880773441e-38  2.5704647971294975e-62  -1.5271570319421532e-55  7.9883503823837913e-49  1.4251670768820847e-48  -1.4622026856978839e-49  -2.0897196066488042e-53  4.1438751839625381e-49  -1.0368328351225859e-59  4.5817231047636919e-58  3.2544216591325709e-37  3.5905356265523653e-68  3.8121888202616426e-57  -1.1837609844123999e-55  -8.2528379427307898e-53  1.5591074201284371e-67  -1.8772949036841542e-64  1.2442448783501197e-66  2.8740527817065825e-65  2.4315571834365814e-56  2.2419712099583721e-58  9.4474077636312542e-30  3.6302026288850293e-30  4.1466069018853369e-45  -2.5549787922433905e-60  -2.1794278131388407e-64  -9.0017000280465933e-47  -4.8020215591716533e-69  -4.3053030650125170e-66  6.9562378149949315e-38  1.1200467507699967e-39  5.6527002905571704e-64  3.1279642545370235e-53  -2.0524968007324228e-45  -1.2795209430480134e-28  -3.0146015036406114e-55  2.1647037780019431e-59  -1.5006976580869890e-60  -2.3455739989055143e-17  -4.0857809537818894e-17  -5.0740594100086842e-18  -7.5527908705925984e-49  1.9878745196817063e-64  -8.3313821277902833e-50  4.5181736419623163e-25  2.9424060704404119e-66  6.6605404189525360e-56  -1.7161502647136545e-43  -1.4415022495601898e-47  -1.3933681768219072e-56  -6.4837710977383144e-71  -2.7318082203034192e-46  -7.1679910461130359e-63  -4.5058832921820503e-68  9.9355619853372377e-25  1.2238559098848897e-39  -4.5531317866305363e-46  -4.3078372807812963e-60  1.7735539788690856e-64  4.3849054822070972e-46  -1.0755189492947415e-53  -3.2806116680137490e-24  -1.5131147630439938e-43  1.1017577804048432e-69  -4.6777607683953900e-39  1.4279218060658574e-27  3.3390653226978778e-36  -1.3986734792059019e-50  2.6957720577476398e-33  -5.2920864042040036e-36  1.5305846930310860e-32  -5.0921992771073464e-61  1.6035750176739484e-50  4.2318059780813631e-19  3.5310383080891482e-35  -1.4181877397254252e-24  3.6718932711787553e-26  -6.4486530663311051e-26  -3.8289649828245796e-20  -2.3093398167553818e-21  2.9646026071689537e-64  -1.2349214173014250e-66  -1.4283885690965611e-40  -8.2944478709608251e-39  -9.3762685427768608e-38  1.0275692931830037e-36  -9.3293845562034195e-18  -4.8067876802231873e-53  -1.0324962717295570e-60  8.7976126623785631e-33  -4.5211730588177601e-62  1.4672288943067570e-62  -1.4038211271979911e-65  -5.1257832778986548e-52  -1.0491132601152123e-64  -2.0477111849750700e-31  -1.6823912848828836e-58  7.3610075784351821e-41  -1.1803760500024707e-59  -2.2175706125597054e-62  2.5393974762258318e-21  2.0193333634003190e-20  -1.1223740775339559e-60  -2.3686475633081147e-39  -5.3905356101719087e-68  -2.6363397622219326e-19  2.5708321483798961e-50  -2.8789092225989265e-66  -2.6539415921882214e-23  -7.9990162310217224e-24  -3.4234727412242951e-46  -3.0759503569981742e-58  -9.5142649910080423e-44  8.9222535803896607e-33  -6.8600783560893543e-68  -3.2051824418624546e-22  1.0480232335239842e-59  2.5128192747878851e-56  4.7806650448375276e-33  -1.2127094009077832e-56  -6.5064971587677905e-19  -6.2685637447358446e-42  7.8474473571939460e-56  6.7109626242637250e-53  -1.2259190957268489e-48  -1.3314998963380673e-60  1.2559657858472330e-48  -2.6498815206005265e-46  -2.0745920202606166e-34  -5.4285464342445957e-49  1.0062723416895450e-54  -1.3125093834504546e-62  -7.7330708803081139e-64  9.6326458116491963e-52  -3.4956273948559713e-32  -1.8314317961649401e-63  9.8907367583345665e-66  -2.4812736050385891e-36  -2.0907180505972841e-72  -1.5026196701086366e-63  -3.4078993789960756e-70  1.5411457921055754e-57  2.2599047052284399e-59  1.8190769646018246e-65  -4.2544256706077038e-40  -2.0491006635112126e-62  8.8590397348196049e-68  5.9540330343891500e-51  -5.8224570598882453e-46  5.1632070002618748e-67  -5.3803511940177903e-66  -1.0416882931733823e-66  1.5231970710766932e-28  -8.9174151606073872e-31  -1.9828275732685016e-33  3.1527870665374515e-65  2.6239692218261985e-22  4.5113895857377431e-30  4.2012550664138099e-54  7.1651913871551049e-47  3.2051884023448552e-60  3.6391544679702272e-22  4.4365972368412513e-54  -1.2091590515560249e-66  5.0485982367132937e-25  1.0260205738502754e-42  -2.1481137785072439e-19  1.5281666962855238e-19  -4.2674458497740694e-67  -9.0568462993584325e-72  -3.9738983113066250e-73  -7.0775868565864210e-74  -9.8812970195950908e-37  -6.4823369526185859e-66  1.0558242931161846e-20  9.5596995719847033e-69  -6.4414347693000640e-70  4.4249945882463161e-67  -1.4461179963768965e-51  -1.0726983078234904e-57  -2.7545723199959702e-42  -3.4718697107790565e-61  7.7585107466966489e-41  4.1866988417919174e-63  -3.8225355872571523e-21  -1.9609851410737017e-21  -1.7786457517900034e-19  4.1444721913466607e-63  6.3058791763722127e-24  -4.9963440902494903e-27  2.8191649047358845e-21  -1.5106676046255903e-49  -2.0416238277223419e-33  1.2464400509528260e-31  2.7989346014438902e-54  -6.0186716604744081e-37  -3.0388101013599762e-38  -4.2496913704286039e-40  -4.7289477647107588e-34  1.3603267413174967e-22  -1.5007717706417034e-20  -6.6319531700598833e-60  -2.8198724702853428e-52  -3.7266571326473609e-51  -2.1969394986210719e-58  -2.0572876139569178e-23  -8.7774260051330089e-65  -3.0877573019370294e-38  -1.5346013570536588e-53  -1.1741779665580827e-33  3.5559867535675153e-27  -7.6695489836441424e-43  1.3404912716220140e-51  3.4809335708610671e-42  -6.0096028133287737e-29  -1.2297342289599811e-31  8.0395374132511153e-54  1.1944558058325771e-60  -6.9173244400834885e-26  2.8512202964000419e-57  -1.0621113550279722e-61  2.4591892256881329e-38  2.8173860486885116e-46  -4.0509106684854435e-26  3.2426935945998892e-48  -5.2221374628752366e-22  2.7984917687543601e-62  7.5671210179835009e-43  1.6855027317525247e-44  -4.7059889106042553e-57  7.8264902301359435e-53  1.1592651631089855e-53  1.2771737468167368e-56  8.0765828158587467e-56  -6.3462730329680665e-54  -3.3091488848868717e-35  -1.9722558619452512e-54  -2.5416988555217389e-45  2.5122740440056548e-37  -3.2319576964239629e-46  -8.7085107985398981e-47  -2.2140949572392334e-62  3.1007499838268355e-41  -5.5402605469090146e-50  -8.3262198182935886e-52  -8.8157547879351450e-51  -1.1448012085903483e-52  -2.7804123675877896e-40  1.9949483520328620e-41  -3.1729542775828704e-43  -9.5531291202796386e-33  -8.6542584974814156e-60  2.1042598835441801e-58  -2.4706844629433750e-59  -7.0053055587744689e-55  -8.7935878561637374e-55  -8.5339708154088807e-57  4.3487559713531300e-62  -5.5202918235497181e-45  2.8836748469130744e-43  3.8780372603607992e-61  6.5779369315776004e-65  -1.0404029668520963e-58  -1.8167560396679032e-45  5.0998946628204486e-38  5.4152156506324026e-32  -2.9888821662968137e-45  -2.9120208319143346e-55  -5.6193850884391078e-26  3.5170675147067209e-40  -7.9779504774313977e-63  -4.7295505317191053e-23  1.1100800431414083e-53  -2.4128148300336037e-62  -1.9399428453031078e-62  -1.5986936390494421e-67  2.0750052199291121e-57  7.4989248488431237e-59  3.4498533673953373e-37  -3.8851844854626038e-45  -2.3525817376599965e-39  6.4444332281210298e-34  -3.4887106545123510e-55  -2.1064601357913114e-57  6.0555011305631483e-47  -9.9665844891066206e-63  -3.853