<?xml version="1.0"?>
<VTKFile type="UnstructuredGrid"  version="0.1"  >
<UnstructuredGrid>
<Piece  NumberOfPoints="6486" NumberOfCells="12696">
<Points>
<DataArray  type="Float64"  NumberOfComponents="3"  format="ascii">0 2.5 0  0 0 0  2.5 0 0  2.5 2.5 0  1.25 0 0  2.5 1.25 0  1.25 2.5 0  0 1.25 0  1.25 1.25 0  0 0.625 0  0.625 0 0  0.625 2.5 0  0 1.875 0  2.5 0.625 0  1.875 0 0  2.5 1.875 0  1.875 2.5 0  1.770833333333333 0.7291666666666666 0  0.7291666666666666 1.770833333333333 0  0.9375 0.625 0  1.875 1.5625 0  0.642361111111111 1.163194444444444 0  1.341594827586207 1.883979885057471 0  0.46875 0.46875 0  2.03125 2.03125 0  0.3626104797979798 1.513178661616162 0  1.381740196078431 0.4564950980392157 0  0.9375 2.172619047619047 0  2.172619047619047 0.9375 0  2.096354166666667 0.4036458333333332 0  0.4036458333333333 2.096354166666667 0  1.684027777777778 1.163194444444444 0  0.3418803418803419 0.8693910256410255 0  1.642742622813391 2.162164207604464 0  1.275619849389031 0.8465650753054845 0  0.9136284722222221 1.434461805555556 0  1.732437511238546 0.3406962303960658 0  0.9714402568595876 1.029779313093998 0  1.52281746031746 1.485615079365079 0  2.1875 1.71875 0  1.06819722569879 0.2997236128493951 0  2.136114211309524 1.303478422619048 0  0.3125 0 0  0 0.3125 0  2.5 2.1875 0  2.1875 2.5 0  0.3200021620376328 1.192323085056694 0  0.6738456129277992 0.8304377375553881 0  1.757891808928991 1.861952730357003 0  1.5625 0 0  0.9375 0 0  0.3125 2.5 0  2.1875 0 0  2.5 0.9375 0  0 0.9375 0  0 1.5625 0  0.9375 2.5 0  2.5 0.3125 0  0 2.1875 0  1.5625 2.5 0  2.5 1.5625 0  0.7448220909826522 0.3003573636608841 0  1.027298850574712 1.871151477832512 0  1.331260495098891 2.197262878816185 0  1.207917681892289 1.582765010956622 0  0.4339993447432606 1.801186844743261 0  0.6337298768939392 1.443093039772727 0  2.049851190476191 0.6826636904761904 0  0.6584821428571428 2.219122023809524 0  1.89575676467455 0.9798457973793544 0  1.437570562095628 1.059380588255917 0  1.502090052505845 0.6987070896496241 0  0.2040860661083546 1.705323965099331 0  0.2083333333333333 0.46875 0  0.5070952039991439 0.2211150679997147 0  0.6916302856529919 0.5813591430410241 0  2.265625 1.953125 0  2.2265625 2.2265625 0  1.886424081252096 2.243391360417365 0  1.40625 0.202164758520858 0  0.2269345238095238 0.2269345238095238 0  1.152730869673694 0.5225850378741401 0  1.885631899587912 1.312095130148776 0  1.614808884009367 0.9049784971014416 0  1.890095442220658 0.5126535558463003 0  2.323168682795699 0.46875 0  2.268811725689575 0.2304742875213018 0  0.6002389442105756 1.967426444210576 0  0.1768313172043011 2.03125 0  0.2311882743104251 2.269525712478698 0  2.03125 0.176831317204301 0  2.280262553344767 0.6954945504579233 0  1.979219539285994 1.809922269642997 0  2.336309523809524 1.09375 0  1.09375 2.336309523809524 0  0.9314042474388009 1.662973812215543 0  0.1634067999087722 1.40625 0  2.337090640094896 1.40625 0  1.141616997467638 2.069311773587991 0  0.46875 2.338939559681489 0  1.542440307908715 1.734944797244472 0  1.556713687786879 1.956977865354753 0  0.8264238995344066 1.975424467820646 0  1.466326331454725 1.275271369760862 0  1.655675324257095 0.5444159974393489 0  0.3385416666666666 0.6479255698005697 0  0 0.78125 0  0.5236073939200119 0.984090461540625 0  2.091665741047893 1.519793517904215 0  1.71875 2.5 0  0.5356538886262603 1.623137930505009 0  0 1.09375 0  0.1932884281517095 1.015625 0  0.8569313582417669 1.2198915584249 0  0.8876981284879677 0.8329884081524883 0  1.115618488474214 0.7219586973356271 0  1.186950366204949 1.043465130075318 0  2.057459118787237 1.110823087309335 0  1.830651283878689 2.049810069572418 0  1.689107969301489 1.367247437031697 0  0.4921048768039656 1.298643370653124 0  0.8213975694444444 2.336309523809524 0  2.03125 2.5 0  1.049729400480002 1.283723261332814 0  1.308101375801673 0.6489479469700392 0  2.5 2.34375 0  0.4968777175037714 0.7562964879736076 0  1.40625 2.5 0  1.501347663534097 2.307027627307738 0  1.602813712048603 0.1926218191360736 0  0.8393082906308107 0.463778306132633 0  1.682663349152719 1.598471865581041 0  0.7774174680851571 1.560004941327907 0  1.554204170364662 0.3898593897892066 0  1.842184459051087 0.186443880058197 0  1.358107417651776 1.696381759610015 0  1.18859291992392 1.77598670078022 0  0.1875331222687418 0.7609599743339348 0  1.339536743965101 1.422080365801479 0  0.7788179348750389 0.9955343414928611 0  0.9062978492805438 0.1919636509126373 0  1.256007360640958 0.3160320559396114 0  1.09375 0 0  1.174986727221844 0.1594990293443933 0  2.34375 1.796875 0  2.318026474511116 1.589177949022232 0  2.34375 2.5 0  1.672742954892153 2.332882724550692 0  0.2683637361947215 1.874801596909639 0  2.174770749820102 0.5581009131310781 0  1.443279522965991 0.8870068372898454 0  0.3385416666666667 0.3571428571428572 0  0.78125 0 0  2.060421048269335 2.314363248763811 0  1.088078737088509 0.8967352118723447 0  1.087825368444708 1.454931510884769 0  2.018308232129541 0.8548495425854904 0  1.943987311736842 0.3246298523011434 0  1.71875 0 0  1.85337849796276 1.144833312386208 0  2.3486328125 2.1044921875 0  1.407588788651747 2.042968789119587 0  2.336309523809524 0.865366648092144 0  2.34375 0 0  2.5 0.15625 0  0.15625 2.5 0  0 2.34375 0  0.1638044648294291 1.242263417405867 0  0.356216654757926 1.032569427322806 0  0.3188217956111817 1.355736727000647 0  0.5924956460852111 0.36112522004736 0  0.6594216488965849 0.1603472116132387 0  1.841804599497131 1.72214349266521 0  0.15625 0 0  0 0.15625 0  2.115898634821499 1.894570904464496 0  0.7821877980253907 0.7129993435924866 0  1.003820447087786 0.4516053462784233 0  0.477562948779147 1.138333049293613 0  0.719493678605015 1.305655360135975 0  0.9772457618587566 2.020350128938537 0  0.8764738248887107 1.826219722709673 0  1.254787875123819 2.339010653832026 0  2.343597354852534 1.249982759769001 0  0.78125 2.5 0  0.46875 2.5 0  2.5 1.40625 0  1.09375 2.5 0  2.5 0.78125 0  2.5 1.09375 0  2.03125 0 0  2.5 0.46875 0  1.40625 0 0  0.46875 0 0  0 0.46875 0  0 1.40625 0  0 1.71875 0  0 2.03125 0  2.5 1.71875 0  2.5 2.03125 0  2.005424054645407 1.653223486966518 0  0.1538730573856537 1.559850281736677 0  2.33984375 2.33984375 0  1.166539506212474 1.922878979538754 0  0.3914885633949916 1.65887232812171 0  0.5795503163042564 1.766243562569382 0  0.399533125920212 1.946786875081388 0  0.7866324979014098 2.127719094551316 0  0.3654683023546834 0.1495701132219454 0  0.1527388747131078 0.6116379440619215 0  2.013737577140188 1.391056634712135 0  1.17635437372994 2.213329084238133 0  1.737118141866284 1.010577140843115 0  2.200707118087222 1.164723314085963 0  1.697018908736685 1.993548551451517 0  0.5387621649009668 0.6070503962352419 0  2.032805785855952 0.5330427622570983 0  1.082699501358059 1.667818725183932 0  1.503819781540653 0.5468420196858188 0  2.015409142866072 2.175941657590429 0  1.752057611265444 0.869642097111018 0  0.612251684107783 2.356045720700959 0  1.902817102342857 0.6607642211999982 0  2.159616561739693 0.7867739969338844 0  0.5120038350106624 2.197302352398502 0  1.888200216011548 1.919501662489862 0  1.495909909726654 2.16028358757309 0  0.489139876703609 1.443203008943564 0  0.8819175670410521 0.3301172743913011 0  1.882591144370812 0.8155965192707721 0  1.133979796994841 1.172526771862882 0  2.206217447916667 2.084147135416667 0  2.20361328125 2.36279296875 0  1.395746985657004 1.556054166359645 0  1.704383111516207 1.734750450338683 0  0.9575737847222222 2.36274223823052 0  1.035150984253136 0.1302833343179028 0  1.383966125325753 0.7651479963479179 0  1.64003252158672 0.6824316405528895 0  2.22550785055421 1.487078576356817 0  1.760964431499756 1.48495222505201 0  1.276460980673788 2.004207003584658 0  0.1341477688427096 1.828777507920502 0  1.542261434180652 1.155296658359034 0  1.334627911613854 0.9696897472490321 0  1.30794231473696 1.119420615785191 0  0.7028260459857245 0.4438906910721139 0  1.625757433094055 1.84268057552138 0  0.9818707849053143 1.165603626132254 0  2.0086489901463 1.243134585689553 0  1.934584460420609 2.374094051915812 0  1.798434376789567 2.38671361912528 0  1.206314791201715 1.382064292497919 0  0.6333752893366955 0.7023738550008095 0  0.7796219811205605 1.42573253164258 0  1.564399711917382 1.026040828857629 0  0.3385416666666666 0.4889012896825397 0  0.1041666666666667 0.390625 0  0.989112246382566 1.543537365516289 0  2.025724425454636 0.9846960595520872 0  0.6602885475034063 2.086117390485779 0  1.607130551925032 1.267198646640915 0  0.1317864544877056 0.8896173683400176 0  1.755387840017567 2.230364320056445 0  1.301540702984401 0.1216289692748247 0  1.433170657577442 0.3331052752740999 0  1.500459610550388 0.113513924782439 0  0.6494291520606965 1.029586599619295 0  1.010146149868299 0.794897284196169 0  0.3700844198238017 2.235390157870766 0  0.3360891767780704 2.36656279435396 0  1.876856241037701 1.437150669863757 0  1.778674102957329 1.245979347269706 0  0.5472829890977179 0.1005517127039925 0  0.4669074189005698 0.3416784232954367 0  1.472765289289269 1.850899166481903 0  1.555853593327178 1.608452097912802 0  0.6708955559113426 1.646561631116984 0  0.8164699620322933 0.5924479455478063 0  0.3167738989468366 1.758696809749795 0  0.2788007305565096 1.605499483471246 0  0.7821720982350511 0.181524936294752 0  1.376812251214195 2.313340247908297 0  1.785652202614777 0.5962261755537186 0  1.761467296310972 0.4679567244718574 0  2.2265625 1.8359375 0  2.3828125 1.9140625 0  0.5279531607054191 2.071552361614785 0  2.397573269551114 0.234375 0  2.383578172599618 0.3589298466020009 0  0.1024267304488855 2.265625 0  0.1164218274003825 2.141070153397999 0  0.2696857594953064 2.135405441512016 0  2.164961300137334 0.1375322943529536 0  2.137757548369486 0.2724194778647587 0  2.238873711826398 0.3626419179496562 0  0.1001414910226386 0.234375 0  0.2176339285714286 0.3478422619047619 0  0.2503620791333544 0.1061694061057066 0  2.336445461915368 0.1250451055247424 0  0.2154004640409726 2.3918124
[...]
<PointData  Scalars="f_124-2"> 
<DataArray  type="Float64"  Name="f_124-2"  format="ascii">-3.1702289069843840e-12  -5.7899624980329905e-13  -5.2941318609491090e-14  -8.7138600215205748e-13  -4.1241292828940995e-13  -5.1397224435451966e-14  -3.3831394622342316e-12  -7.5638953490144069e-12  -4.2129236857333327e-12  -4.2671444084807618e-12  -5.7709316481226014e-13  -3.3347269923021932e-12  -7.1918746887152762e-12  -4.1587988590708139e-14  -1.9917495176712282e-13  -3.7567884632410792e-13  -2.7396369644538936e-12  -2.4128833627506620e-13  -7.6069658879545102e-12  -1.2075985877990054e-12  -1.6990818267567120e-12  -7.2335611668635579e-12  -6.6055814359267318e-12  -2.2773720643031879e-12  -2.7635689726584358e-12  -7.9120918243259059e-12  -3.7968717699325991e-13  -5.7329048896124120e-12  -1.1020275587576092e-13  -1.2637805139635314e-13  -6.1099844339004136e-12  -8.3478561901386467e-13  -6.0227516062488972e-12  -4.9073875624969001e-12  -1.0042206683343059e-12  -7.5339149625109696e-12  -2.3922334661088046e-13  -4.4576165128785605e-12  -3.8173620530175219e-12  -8.4013341241549644e-13  -4.8371397442050883e-13  -2.4617821045709703e-13  -5.9360774049945044e-13  -1.6018984614788417e-12  -7.8986779950557115e-13  -1.8053131220200191e-12  -7.4518875396658677e-12  -4.7568692653458940e-12  -4.1433233859991512e-12  -2.9936241489870304e-13  -5.1205644600968619e-13  -3.1273678192573994e-12  -1.0961663944758415e-13  -4.0570027747342410e-14  -6.5147376245854282e-12  -7.8949289421264942e-12  -3.3309040561572778e-12  -4.6209336626098629e-14  -5.4140604699159520e-12  -3.1763822818617943e-12  -1.2516465603866836e-13  -6.1791763938385044e-13  -7.1863340925768910e-12  -5.3495579657749996e-12  -6.8130643273656058e-12  -7.5429477493557436e-12  -7.8648073437251100e-12  -1.3820376941934705e-13  -5.3024664386666022e-12  -2.3556296529784618e-13  -1.3195838261316226e-12  -3.7404613814845204e-13  -7.7524727194987618e-12  -2.8842554950511338e-12  -6.9822083989888982e-13  -2.0671560360376917e-12  -1.1473911947436187e-12  -1.8860292614925515e-12  -3.6216282045415879e-12  -3.5779369358164375e-13  -1.0246662033014595e-12  -5.1315448468867841e-13  -6.8472275220439736e-13  -4.3993550236424584e-13  -1.8681135049021557e-13  -6.9703708842575325e-14  -8.5793911852213658e-14  -6.9114692610840257e-12  -6.4491401549081834e-12  -4.8053383409983722e-12  -1.4833193256213528e-13  -7.7834866682978861e-14  -2.2613174672867464e-12  -7.2647268521157320e-14  -4.4897228272507613e-12  -7.6760030244574407e-12  -7.8401895869879256e-12  -1.4495413584196323e-13  -6.2814376709183421e-12  -4.3561436639016096e-12  -5.2561407195299256e-12  -5.6476590722727117e-12  -6.9087251932635997e-12  -2.5415309419891190e-12  -2.7770518974020138e-13  -4.4002181520491604e-12  -5.6346436773406808e-12  -6.5654543664712414e-12  -6.2932932989724509e-13  -3.0432072015779633e-12  -7.8643313949583700e-12  -7.1356258827394726e-12  -6.8561433600419737e-12  -6.8446340644428267e-12  -3.1197180414199556e-12  -1.0074906074885355e-12  -2.8444919621540128e-12  -1.8892774913844365e-13  -4.0517476788497784e-12  -1.6942208691406180e-12  -7.6964244054878172e-12  -4.4658807254374521e-12  -2.3455866846732440e-12  -6.1293504783619970e-12  -4.8713078814886999e-13  -9.0297499230750626e-13  -4.9942076840686325e-12  -3.2935898952937949e-12  -4.4335388963751018e-12  -2.8572538571165530e-13  -8.1641017733993780e-13  -3.2434770612646661e-12  -7.8470920416724697e-12  -3.0960182513420451e-13  -2.0131468961439078e-13  -6.3621908123112482e-12  -7.1581581771129901e-12  -5.3727940845195367e-12  -4.8557309070153705e-12  -5.6083715217959247e-12  -5.2364611999563725e-13  -4.1859133680816061e-13  -4.6461829474853727e-13  -4.4551012179618182e-13  -5.4863944807664479e-13  -3.0861538368748615e-13  -1.2801468795051441e-12  -4.0035574383683115e-12  -7.2819618587648410e-12  -1.0183999026628673e-13  -6.8054550543463781e-13  -1.7703983509896706e-12  -5.4799343930305990e-13  -2.6726570485572427e-12  -2.2577882405165552e-12  -6.9117187479119171e-12  -1.5545454156081560e-13  -1.7047936568055571e-13  -2.4919761858109862e-13  -4.1597301698514137e-13  -1.1454911552731729e-12  -5.9927334601719939e-12  -6.5307815463856167e-14  -7.8155858970708635e-14  -5.0627875064088138e-14  -3.1584389301809434e-12  -4.0943104556521720e-12  -7.5752454558606375e-12  -6.8622202304078887e-12  -7.7895740985323258e-12  -9.9589183512807894e-13  -5.8143957113814702e-13  -2.7819760103087484e-12  -5.7770930206705515e-13  -7.6032689492796111e-13  -1.7422252322065587e-12  -2.6889796021906411e-12  -5.7853708221007306e-13  -7.2473760513184741e-12  -7.5908790734323949e-12  -6.6593143386038409e-12  -7.4228905922046580e-12  -4.4766280473605084e-12  -8.9976786338170758e-14  -3.3242209495439520e-12  -3.1708360064760168e-12  -7.2324223683241623e-14  -3.3622732403359789e-12  -4.1855001224464705e-14  -4.3541466590550593e-14  -1.5340318686159855e-13  -4.2888766627288076e-14  -3.5097777874260030e-13  -5.9480997161648329e-13  -2.8529476438569639e-12  -7.8284528217876149e-12  -7.7150969898686503e-12  -6.4960808816622044e-12  -2.2375312651002714e-13  -5.8249848286328252e-13  -1.3631918429479755e-12  -7.8980124677618049e-12  -1.4005826128378200e-12  -6.8931624326159527e-12  -7.8408839881319392e-12  -7.6258097411740734e-12  -6.9893060520837431e-12  -6.0341555598053397e-12  -6.8353418082528255e-13  -4.1810755126867001e-12  -5.5479041493441540e-13  -5.4335111799437922e-12  -4.0550141149613156e-13  -1.2758883928557151e-13  -4.8707884234554684e-12  -3.3284238667793521e-12  -1.4386565765380601e-13  -7.4424466630395210e-12  -3.3549901292663225e-13  -3.0069167451093092e-12  -2.8316490731483164e-13  -4.2438173727260600e-12  -1.8620389747292782e-13  -1.0831355255675681e-13  -5.4597902247228313e-12  -3.3940534207210525e-12  -5.2902499975684372e-12  -7.8839592371378058e-12  -5.6403287562984050e-13  -1.9856644248214836e-13  -4.5239490437995028e-12  -1.8006817483987839e-12  -1.9132859838869925e-12  -5.3520603854176539e-12  -3.9571765888503675e-12  -4.2561007181479238e-12  -4.8870389916971600e-13  -5.4767406388310824e-13  -2.9082324601766483e-13  -3.2399925590255795e-13  -1.9790282674926090e-12  -6.4488321777431617e-12  -7.4440330160280839e-12  -1.3157965655924096e-12  -1.3101867568040024e-12  -2.5152854395332900e-12  -1.1027099113804438e-12  -5.0520867463421555e-12  -5.7112567150268778e-12  -3.4199573711741339e-13  -3.0414214132213724e-12  -3.3859029096483603e-12  -5.7078412682627714e-12  -3.7261918403570202e-12  -7.7720043740683706e-12  -7.6057982739778897e-13  -2.9422336978965251e-12  -2.1820626879255824e-12  -7.5751984597971403e-12  -1.6517532472898552e-13  -6.2294834605521207e-12  -1.5943405274714797e-12  -6.2354664572661559e-12  -4.2647270895980706e-12  -3.9550459116090036e-13  -3.5389063550832613e-13  -3.2088122769070240e-13  -6.5584449047376310e-12  -1.9461633989456188e-12  -5.1444625594564042e-12  -4.0432980308260459e-12  -1.0987292178785810e-12  -8.0731445286787695e-13  -5.9263525206214306e-13  -1.2579747887821434e-12  -6.0401143245856195e-12  -4.3603566054111166e-12  -7.8163109735881586e-12  -1.5614787047310785e-12  -7.6493831177656909e-12  -7.8829889757984994e-12  -5.5582975870371428e-13  -4.5330592199651613e-12  -2.2867993165525772e-13  -2.3184322082607666e-13  -1.0241864288229067e-12  -6.4482020043351361e-13  -6.3177559081931609e-12  -5.9692538813684685e-14  -6.1053414428674267e-14  -4.8351563693087398e-12  -5.8212507880908413e-12  -5.8441397715956562e-12  -1.1258151531255723e-13  -1.1818522863154889e-13  -9.2937800606574586e-14  -1.0462999193867825e-12  -1.8630578720366860e-12  -6.4713933495079397e-13  -7.4021683664065662e-14  -3.8058060586701865e-12  -5.3939379526203163e-12  -6.5658865142246678e-13  -2.4538455877544584e-13  -7.6760051037164638e-13  -4.6149823352736302e-13  -4.3579536129365842e-13  -6.7447552408719813e-12  -2.7377962744139867e-12  -6.7196462903505276e-12  -6.9345872038952006e-12  -1.7852147405270634e-13  -6.0224914824410594e-14  -5.6594649468216012e-14  -1.1709971830250043e-12  -1.7981331340101528e-12  -7.2147123507159529e-12  -7.2270383677343995e-12  -4.2031473978838568e-13  -5.8337591288877968e-13  -2.7196785788667955e-12  -2.0309677145939684e-13  -5.9652584370860057e-12  -7.7355696251174384e-12  -7.4823484540304406e-12  -1.0490987931571558e-13  -5.3369364253910442e-13  -1.0366800955572848e-13  -5.8829413347383585e-12  -7.3064367304987339e-12  -5.7777551421432631e-14  -4.9732018009421241e-12  -7.6112967403604174e-12  -1.3718730371521199e-12  -2.6147092108999260e-12  -1.5871693754960979e-13  -3.8544461430654260e-12  -7.8896062110395752e-12  -7.7207856959560446e-12  -1.2756702834806016e-13  -1.6201115329082595e-13  -5.6999534349555227e-12  -2.7328106698150157e-13  -3.1103899161177399e-13  -3.6399548272729619e-12  -2.2105726883966272e-13  -2.3008052179958335e-13  -5.2986238537718177e-12  -2.1541666775816464e-12  -3.9164557166987324e-12  -7.0025072269486330e-12  -5.2962696071484219e-12  -3.5082280746610910e-12  -3.8483810771326954e-12  -2.7164262454107520e-13  -7.8406802461731416e-12  -7.3915420073857985e-12  -7.7653510390038897e-14  -5.8151203898692508e-14  -3.7628282598303051e-12  -3.7285770253777668e-12  -1.0798230530823624e-12  -1.0802340917603056e-12  -3.6456847481673856e-13  -3.8882171985207815e-13  -2.2297062143904018e-12  -3.1493019287829528e-13  -4.6281711762871669e-12  -6.3966569898589477e-12  -7.0871092909984478e-12  -3.8251708437667785e-12  -7.8892161287257479e-12  -9.9725738419945953e-13  -2.3692575170514891e-12  -5.4783711256055609e-12  -4.3793030656895954e-12  -1.8139297219475983e-12  -3.6353833554294485e-12  -5.9468482956285767e-12  -2.1198091877762985e-12  -3.8311181442099793e-12  -3.2724294764793185e-12  -1.6477424628452804e-13  -7.4700419374590851e-12  -7.3579021050744202e-12  -7.2701019314042199e-12  -6.8162271577553606e-12  -6.0826833497249556e-12  -8.1157089536789546e-14  -7.7604268399278677e-12  -4.2420404752562427e-13  -6.6783174329443693e-13  -5.2893037774881535e-12  -6.3057536646924935e-12  -4.4152142317611725e-12  -1.7620953818361105e-12  -3.8575902926890370e-12  -2.7438942563126601e-13  -4.9294729768737294e-13  -6.9741758257231349e-12  -3.2202439151556414e-12  -6.7533854428902739e-12  -2.3612836905528184e-13  -1.3746458029714660e-13  -5.9297057798244564e-12  -2.0309649094122024e-13  -3.8426448305787781e-12  -7.8943596121967515e-12  -5.4364134977767738e-12  -6.2427498294143084e-14  -5.9749250752920114e-13  -7.6353251663564701e-13  -1.2854517761598500e-12  -1.0079138736704271e-13  -7.7555619358174355e-12  -7.9083152577581093e-12  -1.1534172571770907e-12  -4.2732979416614944e-12  -7.0283217345915294e-12  -3.2285176126594143e-12  -5.2273112381358048e-12  -6.2344649069475389e-12  -3.0461648895047942e-12  -4.7506756378685397e-12  -7.7979534462164463e-12  -7.5371431688235911e-12  -7.3684399241882705e-12  -2.9765060813632387e-12  -4.1951310320512829e-12  -3.4165022307178443e-12  -5.6228578129552675e-13  -6.4875290242494711e-12  -3.7866459583844747e-12  -4.7269437591418840e-12  -1.4464789821161395e-13  -4.1317448638883018e-13  -6.7324554698560170e-12  -3.5754161372268859e-13  -5.6741704477810324e-12  -5.5783164744223597e-13  -8.0581957156405524e-14  -7.6918365900335287e-12  -3.3023103751673980e-12  -2.1179099112938776e-13  -1.5318230419991476e-12  -5.3476066971470042e-12  -4.2781926470318989e-12  -4.2254138283184577e-13  -5.1299351168208168e-13  -9.3418664734596219e-14  -7.1576315089273893e-12  -7.1431222049161889e-12  -4.9830826469967311e-12  -9.2842756033868785e-13  -8.9241360237959275e-14  -3.3125267333026085e-12  -1.2914674873440810e-12  -5.0736751894043506e-12  -6.2485072768293209e-12  -5.6932760098836236e-12  -6.0456818094000340e-12  -3.0989438997934425e-13  -7.6500153236144408e-12  -1.2904526124973671e-13  -1.3852008978365392e-13  -7.8156813626294873e-12  -4.9498185698347967e-12  -6.5067523676291920e-12  -3.0385080637371871e-13  -4.6133484817383173e-12  -1.7223699137428696e-13  -7.2470519084877144e-13  -9.5982089945266751e-13  -4.4969242608017516e-13  -3.8900798768884161e-13  -3.8496751894292671e-13  -6.8202183701708522e-12  -6.8935410016211483e-12  -6.3886410865077528e-12  -6.2186348938706407e-13  -3.1414380508787591e-12  -3.1504296619275504e-12  -2.2477187121559943e-12  -4.8032589940487559e-12  -7.4246513639581335e-12  -3.1167016647456088e-12  -1.2838036500884980e-12  -4.7346175058911909e-13  -7.2758452474945592e-12  -5.8966098985593323e-12  -7.8809783063927414e-12  -3.4353864956646769e-13  -9.6640682984802469e-13  -6.3474748880946312e-13  -4.0976783362277887e-14  -2.1193421694830563e-13  -4.3967975571917952e-13  -4.0460608106960979e-12  -7.1158640382628627e-12  -2.3187589781485684e-12  -1.5788921521882461e-13  -8.4850483202732595e-13  -3.3968452758336713e-12  -5.9636554232629389e-13  -4.1542927068559632e-14  -5.3397461783905995e-14  -3.8680793892881337e-12  -5.1098405627824948e-13  -7.4222848090434955e-12  -7.5499218867151911e-12  -2.8195876822455390e-13  -2.6414733805260427e-12  -5.2199451602717251e-13  -5.8534931657950297e-12  -7.4329570608732736e-13  -6.8934320582381870e-12  -2.7562589775162840e-13  -7.4935401163574914e-12  -6.8028571177549285e-12  -3.6411651301898066e-12  -3.7782066224332190e-12  -4.6334787245024537e-13  -5.5643816148419762e-13  -3.0959384422864541e-12  -7.3725762407082101e-14  -5.4555577004527474e-12  -7.2641639420494977e-12  -5.0722688759418113e-13  -3.3052044542092710e-13  -1.9580393580227925e-12  -6.5058879775548797e-12  -1.3083649471167769e-12  -1.2182465980332640e-13  -4.2529820143458997e-13  -4.1915546001605332e-14  -1.3737031943825068e-13  -1.3625375234764144e-13  -1.8350813483921895e-13  -4.3636017653969520e-13  -8.2452083734295209e-13  -3.2598655891683538e-13  -5.2287153262326542e-14  -5.8527226710716280e-12  -1.1969802553562126e-13  -7.1798461291828356e-12  -7.1881737828998792e-12  -5.1225456183585230e-13  -4.5012868867095190e-12  -3.4203114672377529e-12  -1.1282337599981198e-12  -9.3742668766560665e-13  -1.5791743467044239e-12  -8.9605947503948951e-13  -9.7452253499183048e-13  -7.5372391611593261e-14  -5.4664680639032638e-12  -7.6013673228457745e-12  -6.0015002735335917e-13  -1.9684724944246337e-12  -4.7504775646249119e-12  -9.2079459381780494e-14  -1.4171438397826119e-12  -2.3754915979966155e-12  -1.9607073541505319e-12  -7.1400884733742703e-12  -5.9618745111018397e-14  -2.4477232875096700e-12  -6.1426601614041986e-12  -5.1916013590071131e-14  -4.3348519362834420e-12  -3.1838953149697243e-13  -2.6024454858550274e-13  -5.6066141376229862e-12  -1.0753729360718032e-12  -4.6900823090294836e-12  -3.7873282206128557e-12  -7.9606886647607041e-13  -5.7752769170891563e-12  -7.9070228011154534e-12  -6.8345142409954861e-12  -1.2229931998345201e-13  -5.0221061674146284e-14  -7.5705349529589443e-12  -4.8556924385245392e-12  -6.0800812042323499e-13  -3.4110036168814988e-13  -4.6824116771122857e-13  -4.6730756622655359e-12  -6.6958460192880106e-12  -7.7607954790348356e-12  -4.7166173109178719e-12  -7.6643393064970110e-12  -2.0922196407157975e-12  -5.1730426567419591e-13  -2.1832646411844225e-13  -2.1803711393081495e-13  -9.1835162264498443e-13  -7.7868169531400996e-12  -8.0120148927498885e-13  -5.7952392808030164e-13  -6.0330851523476425e-13  -1.5914933969514736e-12  -8.5893600733737303e-13  -5.4024412703823606e-14  -4.1914062146883700e-14  -5.7294254880855372e-12  -7.3254406548451704e-12  -1.6714488561962656e-12  -7.8768996536264728e-12  -1.5969940074469684e-12  -3.6416981282940871e-12  -8.9635170500186568e-14  -4.9131517071848277e-13  -1.3700577902060974e-12  -8.5907010721711480e-14  -1.3473978771005594e-12  -6.4156265523164517e-12  -2.6668026505877864e-12  -1.6419608580529291e-12  -1.8188613095487007e-12  -4.6417077022417779e-13  -4.8928620966131516e-12  -4.4672527508112840e-12  -5.7869922475165599e-13  -5.8808767155055177e-13  -2.2240347863623630e-12  -3.8076095578856558e-13  -1.5230823948547247e-12  -8.3746705767944432e-13  -5.9108936506882968e-12  -5.0688044902517525e-14  -2.7237433148464131e-12  -3.6614545721861542e-12  -3.7087104476084420e-13  -9.6325640771194320e-13  -7.7736952600550718e-12  -4.9331154447192534e-13  -2.5875508101520033e-12  -6.0998108255460480e-13  -1.0170242589034105e-13  -1.4355231056307405e-13  -5.0074852209570457e-13  -1.4300096823704195e-13  -3.7532006268380787e-12  -7.7843528278655516e-12  -5.8346925813786865e-12  -6.5070665900375095e-12  -7.3000833212984932e-12  -3.2264850307235897e-12  -2.4573915609420771e-13  -3.6895670420305626e-12  -6.3311982025575117e-12  -6.5270055955795508e-12  -8.6221850868254157e-13  -1.1093909272393472e-13  -6.5600615940108376e-14  -5.9416743612145300e-12  -7.5694239177482696e-12  -3.7068205219496730e-12  -1.6463326832362292e-13  -4.3784998576601208e-13  -1.5230780250773934e-12  -3.3397509843172234e-12  -2.0974569309557146e-12  -3.5727745499655344e-12  -3.1910083156661287e-12  -3.3199084475002679e-12  -7.8393223053902565e-12  -3.3477562819372881e-12  -1.7106428793416534e-13  -2.2057576032545827e-13  -2.7487941631915691e-13  -4.6136614402213957e-14  -5.8826279495623909e-14  -9.4294337440583413e-14  -6.8544001010594160e-12  -7.3785274042237952e-12  -7.7118543634832502e-12  -3.3775826765122539e-12  -4.9180608753675689e-12  -5.3060533843983190e-13  -1.7637345572317063e-13  -6.9129458667506768e-12  -3.1314014972931736e-12  -5.8619969365575350e-13  -4.7088184383932493e-12  -4.8062019743469510e-14  -5.8913548815069546e-13  -3.2771126393932420e-13  -1.1121171987259703e-12  -2.1855838512883732e-12  -2.9041924701590080e-12  -8.5633337769589297e-13  -9.0696432130028737e-13  -1.0289515202464671e-12  -7.8926611889252919e-12  -3.2108410767859620e-12  -3.5967705245413127e-12  -2.9012759017370973e-13  -6.8918068917111082e-13  -4.4396065054820027e-14  -1.9001049937405505e-13  -5.4528152019197661e-12  -7.5946154314083467e-12  -3.7314543433060586e-12  -3.6158808145106530e-13  -3.8577061279587434e-12  -2.3781021381224104e-12  -4.1982280901499758e-12  -2.8669894490181853e-12  -7.4037387066277976e-13  -5.9844899358232474e-13  -4.7598786048951483e-12  -3.9770716264442992e-12  -6.5834520552828493e-12  -7.3254686047585458e-12  -6.0040337348018939e-13  -6.2636671493301575e-12  -7.8943857033199667e-12  -7.8983408729930508e-12  -7.8649386729018267e-12  -7.7405908962108253e-12  -4.7883599999605664e-12  -3.5820025621341630e-12  -9.8692067952741590e-14  -5.6128159483171091e-12  -6.9631903454097261e-12  -1.6938726469593510e-13  -4.6339234415047720e-12  -1.0197064446830412e-13  -7.9072676307269821e-12  -6.4366266635354814e-12  -5.1247849916171897e-12  -6.4708088761669222e-12  -4.8130184603115050e-12  -6.7920606231978784e-12  -3.5445816083149929e-13  -6.4334854202568951e-12  -6.1087104119066106e-12  -1.7797427870999193e-13  -7.7737234449657681e-14  -6.0821099895159258e-12  -1.1192489525879153e-13  -9.2315576519219608e-14  -7.7478710196844651e-12  -5.8531542134529841e-13  -1.6872115597011416e-12  -1.1504511818026783e-12  -1.6404015696093010e-12  -4.8218251329014823e-13  -7.7931085528276370e-12  -7.6939508610110721e-12  -5.2230988277147264e-12  -7.2621137247341769e-13  -5.0067324242917379e-13  -5.5078664665236624e-13  -3.6640129857042306e-13  -5.8440336013573498e-12  -7.8303149749140835e-12  -6.2980796857273192e-12  -7.5907000895454129e-12  -6.9909268279708698e-13  -7.3100665700613979e-12  -7.1526706601324047e-12  -4.1862745135265456e-12  -9.0996267319229898e-13  -2.1685131303947111e-13  -1.9651178085781365e-13  -6.3048409320949298e-12  -6.6462404372073768e-12  -7.8979751310952046e-12  -7.8736098916654113e-12  -7.7258771199898940e-12  -2.6818052536677495e-12  -1.0807643931660233e-13  -5.0725353603279258e-12  -4.9438596112973271e-12  -5.3296646979719927e-12  -5.5874229809005472e-12  -5.0196363314283664e-12  -4.2804936645796086e-12  -2.9613907532261859e-12  -3.4248707422078608e-13  -3.8851513207930300e-13  -5.3449444397408195e-14  -2.3754832399361485e-13  -7.5007296762957464e-12  -7.8339095248435734e-12  -7.5043225374152733e-12  -1.9979819756779463e-12  -1.5764541619110776e-13  -2.9013126804491422e-12  -3.8417899915193627e-13  -3.8518020080576396e-12  -5.4757608321261761e-12  -1.8596104324371053e-13  -2.841952