<?xml version="1.0"?>
<VTKFile type="UnstructuredGrid"  version="0.1"  >
<UnstructuredGrid>
<Piece  NumberOfPoints="6454" NumberOfCells="12638">
<Points>
<DataArray  type="Float64"  NumberOfComponents="3"  format="ascii">0 1.5 0  0 0 0  1.5 0 0  1.5 1.5 0  0.75 0 0  1.5 0.75 0  0.75 1.5 0  0 0.75 0  0.75 0.75 0  0 0.375 0  0.375 0 0  0.375 1.5 0  0 1.125 0  1.5 0.375 0  1.125 0 0  1.5 1.125 0  1.125 1.5 0  1.0625 0.4375 0  0.4375 1.0625 0  0.5625 0.375 0  1.125 0.9375 0  0.3854166666666667 0.6979166666666666 0  0.8049568965517241 1.130387931034483 0  0.28125 0.28125 0  1.21875 1.21875 0  0.2175662878787879 0.9079071969696969 0  0.5625 1.303571428571429 0  0.8290441176470589 0.2738970588235294 0  1.303571428571429 0.5625 0  1.2578125 0.2421875 0  0.2421875 1.2578125 0  1.010416666666667 0.6979166666666666 0  0.2051282051282051 0.5216346153846153 0  0.9856455736880344 1.297298524562678 0  0.7653719096334186 0.5079390451832908 0  0.5481770833333334 0.8606770833333333 0  1.039462506743128 0.2044177382376396 0  0.5828641541157527 0.6178675878563986 0  0.9136904761904763 0.8913690476190476 0  1.3125 1.03125 0  0.6409183354192741 0.1798341677096371 0  1.281668526785714 0.7820870535714286 0  0.1875 0 0  0 0.1875 0  1.5 1.3125 0  1.3125 1.5 0  0.1920012972225798 0.7153938510340165 0  0.4043073677566794 0.4982626425332328 0  1.054735085357395 1.117171638214202 0  0.9375 0 0  0.5625 0 0  0.1875 1.5 0  1.3125 0 0  1.5 0.5625 0  0 0.5625 0  0 0.9375 0  0.5625 1.5 0  1.5 0.1875 0  0 1.3125 0  0.9375 1.5 0  1.5 0.9375 0  0.4468932545895913 0.1802144181965304 0  0.7987562970593343 1.318357727289711 0  0.6320399113235965 1.037924776639822 0  0.2603996068459564 1.080712106845956 0  0.3802379261363636 0.8658558238636362 0  0.3950892857142857 1.331473214285714 0  1.229910714285714 0.4095982142857143 0  1.13745405880473 0.5879074784276126 0  0.7482946595664349 0.917427298948138 0  0.8625423372573767 0.63562835295355 0  0.9012540315035069 0.4192242537897745 0  0.6862861647268528 1.220560482834343 0  0.1224516396650128 1.023194379059598 0  0.125 0.28125 0  0.3042571223994863 0.1326690407998288 0  0.4149781713917952 0.3488154858246145 0  1.359375 1.171875 0  1.3359375 1.3359375 0  1.131854448751258 1.346034816250419 0  0.84375 0.1212988551125148 0  0.1361607142857143 0.1361607142857143 0  0.691638521804216 0.3135510227244841 0  1.131379139752747 0.7872570780892659 0  0.9688853304056201 0.5429870982608649 0  1.134057265332395 0.3075921335077801 0  0.1060987903225806 1.21875 0  0.1387129645862553 1.361715427487219 0  1.393901209677419 0.28125 0  1.361287035413745 0.1382845725127811 0  1.21875 0.1060987903225807 0  0.3601433665263453 1.180455866526345 0  0.5483798738512705 1.157949853770241 0  1.36815753200686 0.4172967302747542 0  1.187531723571597 1.085953361785798 0  1.401785714285714 0.65625 0  0.65625 1.401785714285714 0  0.09804407994526333 0.84375 0  1.402254384056937 0.84375 0  0.28125 1.403363735808893 0  0.925464184745229 1.040966878346683 0  0.9340282126721275 1.174186719212852 0  0.8797957988728348 0.7651628218565172 0  0.9934051945542568 0.3266495984636094 0  0.203125 0.3887553418803418 0  0.3141644363520071 0.590454276924375 0  0 0.46875 0  1.254999444628736 0.9118761107425289 0  1.03125 1.5 0  0.3213923331757561 0.9738827583030052 0  0 0.65625 0  0.1159730568910257 0.609375 0  0.5141588149450601 0.7319349350549398 0  0.5326188770927806 0.499793044891493 0  0.6693710930845284 0.4331752184013763 0  0.7121702197229691 0.6260790780451906 0  1.234475471272342 0.6664938523856012 0  1.098390770327214 1.229886041743451 0  1.013464781580893 0.8203484622190179 0  0.2952629260823795 0.7791860223918741 0  0.4928385416666666 1.401785714285714 0  1.21875 1.5 0  0.6298376402880013 0.7702339567996885 0  0.7848608254810038 0.3893687681820236 0  1.5 1.40625 0  0.4622923140598757 1.236370233688302 0  0.4667991207677928 0.9473088592382519 0  0.2981266305022628 0.4537778927841646 0  0.84375 1.5 0  0.9008085981204581 1.384216576384643 0  0.9616882272291621 0.1155730914816442 0  0.5035849743784865 0.2782669836795798 0  1.009598009491631 0.9590831193486247 0  1.105310675430652 0.1118663280349183 0  0.9288474621627256 0.2227857609567891 0  0.7464170347051563 1.031945227193052 0  0.1125198733612451 0.4565759846003609 0  0.841690222029119 0.9722978654718903 0  0.4672907609250232 0.5973206048957169 0  0.5437787095683263 0.1151781905475824 0  0.7536044163845748 0.1896192335637668 0  0.65625 0 0  0.7049920363331066 0.09569941760663599 0  1.40625 1.078125 0  1.39081588470667 0.9535067694133395 0  1.40625 1.5 0  0.6375104178177308 0.9268732242701165 0  1.003645772935292 1.399729634730415 0  0.1610182417168329 1.124880958145783 0  1.304862449892061 0.3348605478786471 0  0.8685031591756179 0.5174815394805063 0  0.203125 0.2142857142857143 0  0.46875 0 0  1.236252628961601 1.388617949258287 0  0.6528472422531054 0.5380411271234069 0  0.8059365139027533 0.8342920789922936 0  1.210984939277725 0.5129097255512943 0  1.166392387042105 0.1947779113806861 0  1.03125 0 0  1.112027098777656 0.6868999874317245 0  1.4091796875 1.2626953125 0  0.7056210334910562 1.122831931927321 0  0.8445532731910484 1.225781273471752 0  1.401785714285714 0.5192199888552865 0  0.5315992325579575 1.02511262900491 0  1.40625 0 0  1.5 0.09375 0  0.09375 1.5 0  0 1.40625 0  0.09828267889765753 0.7453580504435201 0  0.2137299928547555 0.6195416563936835 0  0.191293077366709 0.8134420362003882 0  0.395652989337951 0.09620832696794322 0  0.3786395303236629 0.2546156254865724 0  1.105082759698279 1.033286095599126 0  0.09375 0 0  0 0.09375 0  1.269539180892899 1.136742542678697 0  0.4693126788152344 0.427799606155492 0  0.6022922682526717 0.2709632077670539 0  0.286537769267488 0.682999829576168 0  0.431696207163009 0.7833932160815852 0  0.6864071374811688 0.8459705255349474 0  0.7528727250742914 1.403406392299215 0  1.40615841291152 0.7499896558614008 0  0.46875 1.5 0  0.28125 1.5 0  1.5 0.84375 0  0.65625 1.5 0  1.5 0.46875 0  1.5 0.65625 0  1.21875 0 0  1.5 0.28125 0  0.84375 0 0  0.28125 0 0  0 0.28125 0  0 0.84375 0  0 1.03125 0  0 1.21875 0  1.5 1.03125 0  1.5 1.21875 0  1.203254432787244 0.991934092179911 0  0.7018429057870754 1.316240552056942 0  0.09232383443139219 0.9359101690420062 0  1.40390625 1.40390625 0  0.2348931380369949 0.995323396873026 0  0.3477301897825538 1.059746137541629 0  0.2397198755521273 1.168072125048833 0  0.21928098141281 0.08974206793316726 0  0.09164332482786468 0.3669827664371529 0  0.4604861261832766 1.147925083553434 0  1.208242546284113 0.8346339808272811 0  1.042270885119771 0.6063462845058686 0  1.320424270852333 0.6988339884515781 0  1.018211345242011 1.19612913087091 0  0.3232572989405801 0.3642302377411452 0  1.219683471513571 0.319825657354259 0  0.9022918689243919 0.3281052118114913 0  1.209245485719643 1.305564994554257 0  1.051234566759267 0.5217852582666107 0  0.3673510104646698 1.413627432420576 0  1.295769937043816 0.4720643981603306 0  0.3072023010063974 1.318381411439101 0  1.141690261405714 0.3964585327199988 0  1.132920129606929 1.151700997493917 0  0.4797323103182937 1.318677829548113 0  0.8975459458359925 1.296170152543854 0  0.464209749529605 0.8633392490855897 0  0.2934839260221656 0.8659218053661386 0  0.5291505402246311 0.1980703646347806 0  1.129554686622487 0.4893579115624633 0  0.6803878781969045 0.7035160631177291 0  1.32373046875 1.25048828125 0  1.32216796875 1.41767578125 0  0.5499851861317793 0.9439128053349233 0  1.022629866909724 1.040850270203209 0  0.5745442708333333 1.417645342938312 0  0.6210905905518814 0.07817000059074161 0  0.8251326424747147 1.051763251304391 0  0.9840195129520318 0.4094589843317338 0  1.335304710332526 0.8922471458140904 0  1.056578658899854 0.8909713350312058 0  0.6311277392046407 1.158870891931624 0  0.08048866130562571 1.097266504752301 0  0.7899471681381695 0.5900550615276262 0  0.787583911300231 0.6744258112570235 0  0.9253568605083915 0.6931779950154204 0  0.6069241236579608 1.236016193461046 0  0.9754544598564333 1.105608345312828 0  0.5891224709431884 0.6993621756793521 0  1.20518939408778 0.7458807514137317 0  0.7661039078070937 1.202429845202379 0  1.160750676252366 1.424456431149488 0  1.07906062607374 1.432028171475168 0  0.3800251736020173 0.4214243130004857 0  0.9386398271504294 0.6156244973145778 0  0.0625 0.234375 0  0.203125 0.2933407738095238 0  1.215434655272782 0.5908176357312523 0  0.3862873976850203 1.253958025454808 0  0.9642783311550196 0.7603191879845486 0  0.07907187269262334 0.5337704210040105 0  1.05323270401054 1.338218592033867 0  0.7809244217906405 0.07297738156489482 0  0.8538188665025647 0.1992768958275427 0  0.9002757663302332 0.06810835486946346 0  0.3896574912364178 0.6177519597715768 0  0.8312147565658268 0.4504658003252042 0  0.6060876899209792 0.4769383705177015 0  0.6973120163099531 0.973865749266754 0  0.2220506518942812 1.34123409472246 0  0.2016535060668421 1.419937676612376 0  1.067204461774397 0.7475876083618238 0  1.126113744622621 0.8622904019182541 0  0.3283697934586307 0.06033102762239553 0  0.3141768357227177 0.2102768223058998 0  0.8836591735735614 1.110539499889141 0  0.9335121559963067 0.9650712587476813 0  0.489881977219376 0.3554687673286838 0  0.1635028372004782 0.9601830799237989 0  0.190064339368102 1.055218085849877 0  0.4693032589410306 0.1089149617768512 0  0.826087350728517 1.388004148744978 0  1.071391321568866 0.357735705332231 0  1.056880377786583 0.2807740346831144 0  1.3359375 1.1015625 0  1.4296875 1.1484375 0  0.3906148988360577 0.9415494491776595 0  0.06145603826933142 1.359375 0  0.06985309644022948 1.2846420920388 0  1.438543961730669 0.140625 0  1.43014690355977 0.2153579079612006 0  0.161811455697184 1.281243264907209 0  1.2989767800824 0.08251937661177217 0  1.282654529021692 0.1634516867188552 0  1.343324227095839 0.2175851507697937 0  0.5747241214300347 1.087143402580354 0  0.1502172474800126 0.06370164366342397 0  0.07677312842259779 0.08704698619211086 0  0.06709364565267519 0.1592134266688963 0  0.1305803571428571 0
[...]
<PointData  Scalars="f_11033-2"> 
<DataArray  type="Float64"  Name="f_11033-2"  format="ascii">3.5008514013764167e-19  1.5417248288750293e-23  1.5875141390700750e-23  1.6075668796326781e-18  1.2248104617895413e-21  1.4860307385075870e-19  1.7661008248785783e-18  6.6935482408015357e-18  2.9304395490497954e-16  3.3154111898730418e-18  8.3045693231349340e-22  2.8107017275249050e-19  3.7677769840203364e-18  1.0628992742758002e-22  3.5873733905704749e-22  2.9991028057670190e-18  9.9929617621528942e-18  2.5391677131056579e-19  1.0667158679124570e-17  3.6910151604981758e-17  7.5313674942786878e-17  1.1385686139549846e-16  1.2390139973818993e-16  1.3102453664868456e-16  4.2156134467790390e-17  7.0450860463837334e-18  3.2590730220233197e-18  8.4285621822927662e-20  1.4909040735412717e-19  1.9381782921251956e-22  1.8025872952361917e-18  3.3473745918465596e-17  4.4652779373229439e-17  5.5138623147257503e-17  3.4736163081050949e-17  1.5856542882422377e-16  9.0207629448626061e-22  3.1027362695571911e-16  2.3983323484056436e-16  1.8230465697793547e-17  5.0243329893013255e-20  3.6743921866868864e-18  4.9993688709531540e-23  1.1875307712071216e-19  3.2091253620894233e-18  5.5761270328185695e-18  9.7284341036280504e-18  3.1083865111842292e-16  1.3295314590142194e-16  8.0116716503675094e-22  1.4003190818286082e-21  3.2051496850241396e-19  9.7992198384615485e-23  7.6105495550710026e-21  5.3485561677096761e-18  6.2387742658898166e-18  4.6706962944869585e-19  1.7536048492578059e-23  1.4406211361884729e-18  6.8607060765245316e-18  1.0946384997182274e-18  8.4424857894639978e-19  2.1387562155658695e-17  8.2857267883678910e-17  4.4908614137525253e-18  2.6696961374415919e-17  1.1741568268871859e-18  1.6510006040317713e-20  1.7512209184073791e-18  3.0094997556730616e-16  7.2534464431151713e-17  1.5857831226773393e-18  2.5986975848985637e-17  5.2419339296903091e-18  1.2907903327027758e-16  6.9030610123768548e-19  1.1606059301802173e-16  1.4369034552722801e-17  1.2088704110909613e-17  3.3203722695193034e-17  1.3465916441968098e-21  1.9477844806818091e-18  2.1004081887852880e-18  2.5786452214510292e-17  5.6753222243117304e-18  4.2972660774957660e-21  2.3731117477632960e-18  9.4086391324044516e-19  6.2957345143719905e-23  6.2622670622657696e-23  1.8828677364444119e-22  3.2450335815374558e-18  1.1992860446801917e-17  2.4518777366620004e-21  6.2477432905024818e-17  1.6886147258974324e-19  2.3555137555985394e-18  6.7793143488086612e-18  1.5737353125674718e-18  6.3996491342458324e-19  2.2395825828203412e-16  1.3036168934151562e-16  1.8138365464343483e-16  4.0863275211772065e-20  1.6622236453617267e-16  1.2295070072375148e-16  4.4964143061278145e-18  1.8864902155978620e-17  9.4282973870935755e-18  8.4911783128947338e-18  6.1010201871651179e-18  7.0921144298708734e-18  2.5938803521975473e-16  2.1764557943221860e-16  2.9576036438253917e-17  1.8526102895187802e-16  1.7843529367633057e-18  7.3752617396579435e-17  1.0195390277119747e-16  1.9269720350721609e-17  7.9974025276608131e-19  8.3768215289627888e-18  3.3888521669554434e-16  3.7951041296512044e-18  2.4785426373410122e-18  3.1149791570659901e-18  3.6564453259537666e-17  2.5286163398536166e-16  3.6639997014531483e-18  1.9550604262553478e-17  8.0223797123815434e-22  9.2948865156992004e-18  1.6972774765504604e-16  3.8906440043092578e-22  4.9804609816632737e-21  1.8055877129314645e-16  1.3868645308065634e-17  2.7968875778890605e-16  3.1932083499064009e-16  1.3323236340943169e-20  1.2103544917535005e-20  1.3620934234828443e-21  2.0278930920278891e-21  6.8625402004999137e-18  4.8237856823211756e-18  3.1308107437899380e-18  2.0099030085206640e-16  2.2242370832423000e-17  3.7407123050395305e-18  6.5733132627220224e-22  1.2699045585800497e-17  7.9102279665485791e-17  1.3296282068605993e-21  1.6873865803122559e-17  1.3517135415633090e-16  3.0461096400613427e-16  1.9235456953436568e-19  3.2206358138380123e-22  5.6126370196588864e-22  9.9771992807170977e-18  7.8574438274610927e-18  7.7883808170631733e-17  6.9728676257701617e-17  1.2537563434673944e-20  3.4386077282791224e-17  3.6861281633500609e-23  1.6420884591033894e-23  3.4318504211903670e-19  7.3063563980371505e-19  6.7617979301014079e-18  1.9952957686995937e-17  7.7415756241710507e-18  3.4758014332227912e-20  2.0710482851623169e-17  1.0831718386864652e-16  1.7747308963671210e-23  4.9381643025757925e-22  3.2023295696359543e-17  1.7129376654405419e-16  2.0737908029152888e-18  3.2122311009003069e-17  9.3200132607634060e-17  3.2098475298070745e-16  5.3905004892229071e-18  4.7093447373680772e-19  3.1834788500422100e-19  3.0686574866358974e-19  4.6398675526839110e-19  8.1445141397372293e-19  1.1388916847870286e-21  4.1419261331089594e-20  1.9270341002328280e-22  2.1937845798881626e-23  1.0433461618346377e-21  2.6607930909500810e-22  1.6885494614035953e-18  6.7563643049396991e-18  5.1745676418639056e-18  2.4260988520488721e-18  2.0115948640179990e-18  3.5608350466115578e-18  4.4198510959174427e-17  1.0442937620470877e-17  6.2610965965753402e-18  5.1353344384050673e-18  5.8435089288057278e-18  6.3642033564792732e-18  3.0624544760722945e-18  7.1024183960419226e-20  1.8195244884506700e-17  6.3986594098650274e-18  1.6558366378978280e-17  6.2533969197639752e-18  8.3490530901547975e-19  1.0832217437838498e-16  2.5181572887093395e-16  1.7500841936776596e-21  1.6230924380715395e-19  3.1063944915313598e-17  1.7796209778156011e-18  5.7058900771698919e-19  2.3648587325034400e-20  1.2038021991905539e-18  3.8649866606632649e-20  8.6627935035346630e-17  1.6983076990554212e-18  4.4584887625479725e-17  6.9004184934178307e-17  1.1942617346148944e-17  4.5922630683196814e-19  3.6932364503510664e-19  3.1594179814618282e-16  1.7957724583105380e-17  8.4460714227159744e-18  8.5402965419026520e-17  1.6739294548700154e-16  1.0025389218934440e-18  2.2151103581382144e-21  2.0697446356553508e-16  3.9179227119486668e-19  6.0181666652029382e-18  1.0599170011784014e-16  2.7231707802530242e-17  4.1734495108275360e-18  7.8113874254731641e-17  1.7317793434345208e-16  7.3684517671611941e-17  9.8415405910924472e-18  1.7173725477515633e-16  3.4410438436211451e-16  5.7186914604499375e-18  5.8642574582039904e-17  1.6779138829126388e-17  1.7822209770169158e-17  2.6880444894554248e-16  2.3887631473254791e-17  1.3517447104437337e-17  2.3710306308449864e-16  7.5203599680173686e-19  2.0836218434192526e-18  9.5018608638346999e-17  6.0175187623096423e-18  4.0439481941168751e-17  1.2626970916405883e-21  6.3620789572579859e-21  9.1938914726851778e-22  2.0514701432430362e-16  6.3977248098489588e-18  1.0877817197903978e-16  2.0387439562616532e-16  1.0443975200900835e-18  5.6748423711488141e-19  3.4120416655937665e-17  5.1234102333971986e-17  6.9090432016235622e-21  1.4395049101403345e-17  1.7230955636229609e-16  2.4073725421938821e-16  6.0216541461404938e-17  6.0889811456261634e-18  4.7998474488746516e-18  2.9794014493702298e-20  1.1459447369467758e-17  3.5713043136451054e-20  4.9666210928398158e-21  1.6941828355116856e-17  6.5541463373772974e-18  1.7489457661310463e-17  1.0089019105544701e-18  1.6891511862119853e-18  2.8818152939673608e-23  3.3562490266793707e-23  1.6213179037818620e-18  1.0786328052106478e-22  1.1598825333488376e-22  7.3672501071278645e-23  3.2942010355601191e-17  2.5138780786779703e-21  -6.4603165461495876e-22  1.3425273959490315e-18  9.5248847776907156e-17  4.1606836607777424e-23  5.2677002831806845e-19  4.9926905234331406e-18  2.1427795299404864e-18  5.8539158397731025e-22  1.9581784174249903e-19  2.5317726182908995e-19  9.7845828136890379e-18  2.6227076051362704e-18  1.6406829909697917e-16  2.9945924400406254e-16  2.5346668368283758e-16  1.5312781547087039e-17  2.3497583963898090e-22  2.8643508254347155e-22  3.1505166405786910e-18  2.1632184446013996e-21  5.4219288157469949e-18  5.3382539536205459e-18  3.6759485480149304e-18  3.7607809980218482e-18  1.3557585010465060e-17  1.6567819419928248e-16  5.3854207725058181e-21  1.7638760186729500e-16  1.2819501857602113e-18  4.2780182974041939e-18  7.7042569670682315e-22  2.6702047042132885e-16  1.3088272429846111e-16  5.1946803199753357e-21  2.1261056287644035e-21  2.5386231516231562e-19  7.0882321234732811e-18  3.3668820882133937e-20  4.9106929034225820e-18  1.2863276437198876e-21  4.9755036834941409e-17  3.7464331273097828e-17  5.5519008108289800e-17  5.9295999725832176e-22  1.8801911856194644e-18  6.8003808451695896e-18  6.8121631718818167e-18  1.6715174673527205e-18  1.2980533093454487e-18  3.3262073835683457e-16  6.7754276449196978e-22  4.8275566817540693e-17  4.4836283551644588e-22  2.5395124061416064e-18  8.9599092298456572e-17  4.0808080832371880e-19  5.3912803762161287e-17  1.2613669743701066e-16  2.6479073673031623e-16  5.7334549333188541e-18  6.4606570627521602e-18  4.7972975814298815e-19  1.3322948462111027e-19  3.9600653190020345e-18  5.3768825187152742e-19  2.7067191614063889e-18  4.0256175033174576e-17  8.2235719337746414e-18  6.0493006223697942e-19  9.2663053048019243e-18  7.1003312856250771e-17  1.2983186385782183e-18  2.5367929808864222e-17  2.4555722623566161e-16  1.4714467405479163e-16  6.5786841531192425e-18  2.1287936996154606e-17  4.3832669558642604e-18  2.7759617164961806e-16  3.0655545977934261e-16  1.1651673854599908e-17  9.4402540893652709e-17  7.5994897955575033e-18  2.4710010880240082e-16  2.2406011810089326e-16  1.0864845398199562e-16  2.6701331959607769e-16  8.5484847140663024e-20  6.5264514615579518e-20  2.3334255401869802e-17  1.4666753778599404e-18  7.8060643504013640e-18  1.5993818984245502e-17  1.2102636612577199e-17  3.1131652593764277e-16  2.3987401218939377e-17  8.0334836628618369e-18  9.6783105195993006e-18  5.7470316641865758e-18  2.2870732238883850e-18  5.3499610834700802e-19  8.0808708007868453e-17  2.3631016014845794e-18  1.0274814515114251e-17  1.5586687793704412e-17  7.7072448870576898e-19  2.5750420375764157e-16  2.2001376406002679e-23  1.4763563540379811e-22  1.2790398733217511e-17  7.4242667097110558e-18  5.7831653730167027e-18  1.0299704733504876e-16  5.7321557044744344e-17  2.7058161586604715e-16  9.2741110198591063e-17  2.9055375922990473e-19  3.4618671276961896e-16  3.3069877156978883e-16  1.1576131595711632e-16  4.9545717170499154e-17  3.2282109429157859e-17  9.6228139609085860e-17  3.4494960921476369e-17  2.3268287508540153e-17  1.5296222104237657e-17  6.2175643066652115e-17  1.3877185043367899e-16  1.0342940024806815e-16  6.3770472615860556e-17  1.1876159187807397e-21  1.5739866644447663e-17  1.5272581785285467e-18  5.0558985299936034e-19  1.9246132467068130e-22  2.5528233189023917e-16  2.6080536086728013e-21  1.0711944235369565e-21  7.6760480733053164e-17  1.2214553763051343e-16  2.2148122778122646e-17  3.2961535814130906e-21  5.1184658279649581e-22  3.7886192075184147e-17  8.9503098816971630e-22  5.0186175592220595e-18  2.2675616279858051e-16  4.7190283555074997e-22  8.0463687235852546e-17  4.8569193790997204e-18  3.1880653596196270e-16  2.0648511492681582e-16  5.6770322958698931e-20  6.1438859475667426e-23  3.6137053376246498e-18  6.2755726602901105e-18  2.4849679323341051e-17  8.0708015164057356e-18  1.7182160634864028e-23  3.1132267048558391e-20  5.5998846941349722e-19  5.9421082127788635e-18  1.6395781754482244e-16  5.3267594117432848e-18  2.1476723397255014e-19  7.3129715765644332e-18  1.4037321901607925e-22  1.5603115035838819e-22  1.0244513641168095e-17  5.9714497670038418e-17  2.6409800200061659e-16  1.4918678296688979e-16  2.1695476405774665e-20  1.7926621513204615e-18  4.9388805135873161e-17  2.7219792568695901e-22  2.4371915957234309e-18  1.8833519889598574e-17  4.0082156734167874e-20  2.1281882569571861e-20  3.5720111079391386e-21  4.6117141416009370e-20  3.0790472101074687e-19  1.3747946640251302e-17  2.4044907713690998e-17  8.0426474786377805e-19  4.7070838960734160e-17  8.5828538210453276e-18  1.6459296291220352e-20  1.6046218898484493e-16  2.6127095716613975e-16  1.3786262215263162e-16  1.8510979517761277e-16  5.3800305585288090e-17  2.3427651363697676e-16  2.5736234142953064e-17  3.0287019801974102e-21  2.7511194086769669e-18  9.7817898166918785e-18  4.8385599576210436e-17  3.4959409192558070e-18  2.7919298309370133e-17  1.0366863448788650e-20  2.8094552121958093e-17  1.5325366599701316e-22  3.6942832424282305e-23  5.0974315981521969e-23  1.0221780692030055e-18  2.1929665656891952e-21  4.0242948555235645e-18  4.5185334777833859e-18  2.6720643320579831e-18  1.3037576693088715e-17  2.5706575716964075e-19  2.7595467391439302e-16  2.4801281544111213e-16  2.0924679731131448e-18  3.2940785869066451e-17  4.6169563864047031e-17  4.0175963539533399e-18  4.6127282475535642e-18  4.2861510838065488e-19  4.1909582298377959e-19  1.4278589489008075e-21  3.1929490395285863e-17  9.5364545395601186e-20  6.6190900447505104e-21  1.1756405270241475e-17  4.6703854056709014e-18  7.7546750693932901e-17  2.4157225614700516e-18  2.7520547433507637e-17  3.1219777869998386e-21  1.2888710660077801e-21  5.2668270698502004e-21  8.8558935272620346e-18  3.2742274989576120e-16  9.5393401403334973e-17  5.6748268832710731e-18  3.0253550304256153e-22  2.3945410263759381e-19  6.4618303943452186e-19  4.8789582003272805e-20  8.9254427196502367e-18  4.5381216847132848e-18  1.0597323559495329e-17  3.8170815162028194e-18  1.5643515868657703e-23  3.7959425769787080e-23  3.0033645297227792e-16  4.3561467168282971e-22  1.0516361856383737e-17  1.8774156397282240e-17  1.0496698671505312e-17  3.5421206074591955e-17  1.4433140150098031e-17  5.6471847523415976e-17  4.7598421849339002e-18  1.1662629307699134e-17  4.9881731437928619e-18  4.8504088340786373e-23  1.3609960283514213e-18  2.2082429757771624e-18  4.1122271768133180e-17  1.9586859828072620e-18  6.7908250540506289e-17  6.8629172128806415e-23  4.4588849795131324e-17  1.9414255471153873e-16  4.4416157834852063e-17  2.3744159251106331e-23  2.8027875419565943e-18  1.2665042301098778e-16  4.9228943679367448e-18  1.6089242048118634e-18  3.9500229061309107e-22  7.3295523071964673e-19  9.6557614318063239e-20  3.2055977571906073e-16  3.7217249485502731e-18  4.7594586885135411e-19  4.9799697491436617e-18  1.0934307025323269e-17  6.0395698316022511e-17  2.8200469690921638e-17  5.3123046093168406e-18  1.9703004396126194e-17  8.4915577921138962e-19  7.9291750993864500e-21  1.3923990710246916e-16  8.6395344657567865e-17  4.0687721735764508e-17  6.3182959192430146e-21  3.3704841405220995e-18  3.0296870747372606e-16  1.1829348235094703e-17  1.9501037226683066e-16  9.2871390017123550e-18  1.8528000473729912e-18  3.1546847242637712e-18  1.0334546566633469e-18  5.5262901624247177e-18  2.7995403149256549e-18  7.0105807129621778e-18  4.3246020886734116e-21  1.2804000546270481e-19  2.7524593020018466e-19  6.7096812682541522e-20  1.9059458832139496e-20  7.6136051187124251e-18  1.5763946483755178e-16  1.3755357245378274e-16  3.7529689710689705e-19  1.3999708568871282e-21  2.0767767736384630e-17  2.1200882133023801e-16  9.3730464493986364e-18  5.8330246297871433e-18  1.8153773136380790e-22  1.1955747865195895e-17  4.7192712349181086e-17  1.6367296749944966e-16  2.1296725050122244e-17  8.8605863953443719e-17  4.1423469661068612e-17  3.6413041586091099e-17  1.1393803225156842e-21  7.6267571905549996e-18  1.9371595562545021e-18  1.8408954802586463e-23  1.8582109269947006e-17  2.6173212783903302e-16  1.7626941877634192e-16  1.8739980758864857e-16  8.0245023063540383e-17  1.8386441712224017e-17  3.9992887666769807e-18  2.9051097994044725e-17  9.5829222178154014e-18  4.6191384348746556e-19  8.0505005466167060e-22  8.5348774466970665e-23  2.4113334000127287e-22  6.5569566804315573e-21  9.5413739155802289e-19  2.2284315506443427e-16  3.2637920568219501e-16  2.6868972233975684e-16  3.2889731451206827e-19  4.0363455059822473e-18  4.7404547971052751e-17  5.5981006502277000e-22  2.1675559217305132e-16  3.3656400912303544e-17  8.9330266890765514e-19  2.5342203384991988e-19  1.8071646498796284e-18  2.7043550350869904e-18  6.6848470533500446e-18  7.1694330686835188e-18  1.7668490952060754e-18  1.2953181490651130e-21  4.2311601702517916e-18  7.0839014780028646e-18  4.7721907389848896e-19  3.4361720274014185e-19  2.7014519122870164e-18  5.7591536404294320e-18  2.9098423800864254e-19  1.5605227754442204e-18  4.5624467688987702e-22  6.8211547263794302e-22  8.3420492461419189e-20  2.6952881874797576e-19  7.2584239262071183e-19  5.7604906245113573e-18  6.4433510796771601e-18  6.7930881759493961e-18  3.9870306378290002e-18  1.3554308957304082e-21  3.0955440777434921e-18  2.6798700576777476e-22  3.3402199898993541e-19  3.3526980954499669e-23  1.7559313196124086e-23  1.0833857801396153e-18  5.2120971382200113e-22  9.3059877889966724e-22  7.5053695437644106e-21  7.3359101030940135e-19  9.8021144865984699e-18  1.2312859777343686e-18  2.8794202401965158e-18  1.9523197868649222e-18  2.1167772170927649e-18  6.5523360163036983e-18  4.8936262790036088e-18  2.8215075071756808e-18  3.5796739961667170e-19  2.6177778955989361e-18  3.4503924380014820e-18  4.1443162963136252e-18  1.2123173873537698e-19  2.4931102468493655e-21  6.0331050951786795e-19  5.4682229814823877e-17  2.9345123742567662e-16  1.8051629336992534e-16  1.7107828596179822e-16  1.2510248623401436e-17  1.3930326062197705e-21  4.5413130473044961e-18  2.3570995625526290e-18  1.0732968734490273e-17  6.5853232402873833e-18  6.2566125650813748e-18  5.8306121548405635e-18  6.8440673999657405e-18  3.1921678853650242e-23  1.3374768193229269e-17  4.5917332361168833e-17  3.4685620153314373e-19  1.6863148984138193e-16  1.6498500059371576e-18  3.0123255079836979e-16  2.4559305658191486e-16  8.8502151866054863e-19  1.6868903538976873e-17  6.4033281375683199e-18  1.5369069972045197e-18  3.3801949723516230e-16  2.7773517628267502e-17  7.2007094323886960e-18  2.5748639372536937e-17  8.2859073042491729e-20  2.1386220154609954e-16  2.6554921602079709e-16  3.2435239256070072e-16  3.6412627147236319e-23  5.3848204882719209e-22  1.1647225499423235e-19  6.9291178605177612e-20  1.8665675997181856e-16  6.6475692391299055e-20  7.0367934245725732e-21  1.4688895630882911e-17  4.9601199553846811e-17  2.0876721695353431e-18  2.2723729509293350e-16  9.4470724720398312e-18  6.3491498115022301e-17  5.9311887550828035e-17  2.7191513068941951e-17  1.3662040652243437e-17  1.7478163787957725e-17  7.3610669497797181e-18  6.7611270117021885e-18  8.6166602349429560e-18  4.9011526912179712e-18  7.4255188420311147e-18  3.3302076142812174e-18  3.7696821256387621e-18  2.3112272661768026e-18  1.5558232916346148e-16  1.3100492515023822e-16  2.8419767539778019e-16  8.5196701141740667e-20  1.6288741846636758e-20  1.3893456509636576e-16  1.2443785034954037e-17  2.0286328744587082e-18  5.2093978889817355e-18  6.5449025334418954e-18  6.3294408753349873e-18  1.1621827867776231e-22  8.8800521966495204e-19  1.1152815748941948e-18  1.6325760879901492e-18  1.2192739434466271e-18  2.5244115183726401e-17  1.8689809496757842e-16  1.5354458150074308e-17  7.1396324107055913e-18  3.5898846363033001e-17  7.6869504210915975e-18  9.7855375848515370e-18  4.5315355186130818e-21  7.1962411765197273e-18  1.2466335685559821e-16  2.1295936437827164e-22  1.5917770766754186e-21  2.4481977819809663e-17  1.6682347841671037e-16  3.4173426082942851e-22  1.3707204884504648e-16  3.4618312548742370e-17  3.5686703930271525e-17  5.1384959409245292e-18  1.5689846580720093e-20  1.1469604172155098e-18  4.2298597684869079e-19  9.0068189642248687e-18  1.6616382316436240e-17  5.7085933759185360e-17  1.2359529269459257e-17  9.1225471226495034e-17  1.2855118335700239e-16  2.0427149658104734e-16  5.1323850300159851e-23  1.6824020306547593e-17  3.8301112104247744e-19  8.3108434158873060e-19  7.0241930347385784e-23  3.7869173979786729e-21  4.0053579072266632e-19  3.5923543027836239e-20  4.9247166451168616e-23  1.4773133725932553e-16  1.2060941529689912e-17  7.8943373458228374e-22  7.3968728734608409e-18  3.4457868983767964e-19  1.5110959065715260e-22  1.0667320060280202e-16  8.3452115911677329e-19  1.1908342603658134e-18  1.4472347730607780e-18  7.5623983479547830e-19  1.0264671497455510e-16  1.0678821191493104e-16  2.6247862642913821e-16  7.734795