<?xml version="1.0"?>
<VTKFile type="UnstructuredGrid"  version="0.1"  >
<UnstructuredGrid>
<Piece  NumberOfPoints="6486" NumberOfCells="12696">
<Points>
<DataArray  type="Float64"  NumberOfComponents="3"  format="ascii">0 2.5 0  0 0 0  2.5 0 0  2.5 2.5 0  1.25 0 0  2.5 1.25 0  1.25 2.5 0  0 1.25 0  1.25 1.25 0  0 0.625 0  0.625 0 0  0.625 2.5 0  0 1.875 0  2.5 0.625 0  1.875 0 0  2.5 1.875 0  1.875 2.5 0  1.770833333333333 0.7291666666666666 0  0.7291666666666666 1.770833333333333 0  0.9375 0.625 0  1.875 1.5625 0  0.642361111111111 1.163194444444444 0  1.341594827586207 1.883979885057471 0  0.46875 0.46875 0  2.03125 2.03125 0  0.3626104797979798 1.513178661616162 0  1.381740196078431 0.4564950980392157 0  0.9375 2.172619047619047 0  2.172619047619047 0.9375 0  2.096354166666667 0.4036458333333332 0  0.4036458333333333 2.096354166666667 0  1.684027777777778 1.163194444444444 0  0.3418803418803419 0.8693910256410255 0  1.642742622813391 2.162164207604464 0  1.275619849389031 0.8465650753054845 0  0.9136284722222221 1.434461805555556 0  1.732437511238546 0.3406962303960658 0  0.9714402568595876 1.029779313093998 0  1.52281746031746 1.485615079365079 0  2.1875 1.71875 0  1.06819722569879 0.2997236128493951 0  2.136114211309524 1.303478422619048 0  0.3125 0 0  0 0.3125 0  2.5 2.1875 0  2.1875 2.5 0  0.3200021620376328 1.192323085056694 0  0.6738456129277992 0.8304377375553881 0  1.757891808928991 1.861952730357003 0  1.5625 0 0  0.9375 0 0  0.3125 2.5 0  2.1875 0 0  2.5 0.9375 0  0 0.9375 0  0 1.5625 0  0.9375 2.5 0  2.5 0.3125 0  0 2.1875 0  1.5625 2.5 0  2.5 1.5625 0  0.7448220909826522 0.3003573636608841 0  1.027298850574712 1.871151477832512 0  1.331260495098891 2.197262878816185 0  1.207917681892289 1.582765010956622 0  0.4339993447432606 1.801186844743261 0  0.6337298768939392 1.443093039772727 0  2.049851190476191 0.6826636904761904 0  0.6584821428571428 2.219122023809524 0  1.89575676467455 0.9798457973793544 0  1.437570562095628 1.059380588255917 0  1.502090052505845 0.6987070896496241 0  0.2040860661083546 1.705323965099331 0  0.2083333333333333 0.46875 0  0.5070952039991439 0.2211150679997147 0  0.6916302856529919 0.5813591430410241 0  2.265625 1.953125 0  2.2265625 2.2265625 0  1.886424081252096 2.243391360417365 0  1.40625 0.202164758520858 0  0.2269345238095238 0.2269345238095238 0  1.152730869673694 0.5225850378741401 0  1.885631899587912 1.312095130148776 0  1.614808884009367 0.9049784971014416 0  1.890095442220658 0.5126535558463003 0  2.323168682795699 0.46875 0  2.268811725689575 0.2304742875213018 0  0.6002389442105756 1.967426444210576 0  0.1768313172043011 2.03125 0  0.2311882743104251 2.269525712478698 0  2.03125 0.176831317204301 0  2.280262553344767 0.6954945504579233 0  1.979219539285994 1.809922269642997 0  2.336309523809524 1.09375 0  1.09375 2.336309523809524 0  0.9314042474388009 1.662973812215543 0  0.1634067999087722 1.40625 0  2.337090640094896 1.40625 0  1.141616997467638 2.069311773587991 0  0.46875 2.338939559681489 0  1.542440307908715 1.734944797244472 0  1.556713687786879 1.956977865354753 0  0.8264238995344066 1.975424467820646 0  1.466326331454725 1.275271369760862 0  1.655675324257095 0.5444159974393489 0  0.3385416666666666 0.6479255698005697 0  0 0.78125 0  0.5236073939200119 0.984090461540625 0  2.091665741047893 1.519793517904215 0  1.71875 2.5 0  0.5356538886262603 1.623137930505009 0  0 1.09375 0  0.1932884281517095 1.015625 0  0.8569313582417669 1.2198915584249 0  0.8876981284879677 0.8329884081524883 0  1.115618488474214 0.7219586973356271 0  1.186950366204949 1.043465130075318 0  2.057459118787237 1.110823087309335 0  1.830651283878689 2.049810069572418 0  1.689107969301489 1.367247437031697 0  0.4921048768039656 1.298643370653124 0  0.8213975694444444 2.336309523809524 0  2.03125 2.5 0  1.049729400480002 1.283723261332814 0  1.308101375801673 0.6489479469700392 0  2.5 2.34375 0  0.4968777175037714 0.7562964879736076 0  1.40625 2.5 0  1.501347663534097 2.307027627307738 0  1.602813712048603 0.1926218191360736 0  0.8393082906308107 0.463778306132633 0  1.682663349152719 1.598471865581041 0  0.7774174680851571 1.560004941327907 0  1.554204170364662 0.3898593897892066 0  1.842184459051087 0.186443880058197 0  1.358107417651776 1.696381759610015 0  1.18859291992392 1.77598670078022 0  0.1875331222687418 0.7609599743339348 0  1.339536743965101 1.422080365801479 0  0.7788179348750389 0.9955343414928611 0  0.9062978492805438 0.1919636509126373 0  1.256007360640958 0.3160320559396114 0  1.09375 0 0  1.174986727221844 0.1594990293443933 0  2.34375 1.796875 0  2.318026474511116 1.589177949022232 0  2.34375 2.5 0  1.672742954892153 2.332882724550692 0  0.2683637361947215 1.874801596909639 0  2.174770749820102 0.5581009131310781 0  1.443279522965991 0.8870068372898454 0  0.3385416666666667 0.3571428571428572 0  0.78125 0 0  2.060421048269335 2.314363248763811 0  1.088078737088509 0.8967352118723447 0  1.087825368444708 1.454931510884769 0  2.018308232129541 0.8548495425854904 0  1.943987311736842 0.3246298523011434 0  1.71875 0 0  1.85337849796276 1.144833312386208 0  2.3486328125 2.1044921875 0  1.407588788651747 2.042968789119587 0  2.336309523809524 0.865366648092144 0  2.34375 0 0  2.5 0.15625 0  0.15625 2.5 0  0 2.34375 0  0.1638044648294291 1.242263417405867 0  0.356216654757926 1.032569427322806 0  0.3188217956111817 1.355736727000647 0  0.5924956460852111 0.36112522004736 0  0.6594216488965849 0.1603472116132387 0  1.841804599497131 1.72214349266521 0  0.15625 0 0  0 0.15625 0  2.115898634821499 1.894570904464496 0  0.7821877980253907 0.7129993435924866 0  1.003820447087786 0.4516053462784233 0  0.477562948779147 1.138333049293613 0  0.719493678605015 1.305655360135975 0  0.9772457618587566 2.020350128938537 0  0.8764738248887107 1.826219722709673 0  1.254787875123819 2.339010653832026 0  2.343597354852534 1.249982759769001 0  0.78125 2.5 0  0.46875 2.5 0  2.5 1.40625 0  1.09375 2.5 0  2.5 0.78125 0  2.5 1.09375 0  2.03125 0 0  2.5 0.46875 0  1.40625 0 0  0.46875 0 0  0 0.46875 0  0 1.40625 0  0 1.71875 0  0 2.03125 0  2.5 1.71875 0  2.5 2.03125 0  2.005424054645407 1.653223486966518 0  0.1538730573856537 1.559850281736677 0  2.33984375 2.33984375 0  1.166539506212474 1.922878979538754 0  0.3914885633949916 1.65887232812171 0  0.5795503163042564 1.766243562569382 0  0.399533125920212 1.946786875081388 0  0.7866324979014098 2.127719094551316 0  0.3654683023546834 0.1495701132219454 0  0.1527388747131078 0.6116379440619215 0  2.013737577140188 1.391056634712135 0  1.17635437372994 2.213329084238133 0  1.737118141866284 1.010577140843115 0  2.200707118087222 1.164723314085963 0  1.697018908736685 1.993548551451517 0  0.5387621649009668 0.6070503962352419 0  2.032805785855952 0.5330427622570983 0  1.082699501358059 1.667818725183932 0  1.503819781540653 0.5468420196858188 0  2.015409142866072 2.175941657590429 0  1.752057611265444 0.869642097111018 0  0.612251684107783 2.356045720700959 0  1.902817102342857 0.6607642211999982 0  2.159616561739693 0.7867739969338844 0  0.5120038350106624 2.197302352398502 0  1.888200216011548 1.919501662489862 0  1.495909909726654 2.16028358757309 0  0.489139876703609 1.443203008943564 0  0.8819175670410521 0.3301172743913011 0  1.882591144370812 0.8155965192707721 0  1.133979796994841 1.172526771862882 0  2.206217447916667 2.084147135416667 0  2.20361328125 2.36279296875 0  1.395746985657004 1.556054166359645 0  1.704383111516207 1.734750450338683 0  0.9575737847222222 2.36274223823052 0  1.035150984253136 0.1302833343179028 0  1.383966125325753 0.7651479963479179 0  1.64003252158672 0.6824316405528895 0  2.22550785055421 1.487078576356817 0  1.760964431499756 1.48495222505201 0  1.276460980673788 2.004207003584658 0  0.1341477688427096 1.828777507920502 0  1.542261434180652 1.155296658359034 0  1.334627911613854 0.9696897472490321 0  1.30794231473696 1.119420615785191 0  0.7028260459857245 0.4438906910721139 0  1.625757433094055 1.84268057552138 0  0.9818707849053143 1.165603626132254 0  2.0086489901463 1.243134585689553 0  1.934584460420609 2.374094051915812 0  1.798434376789567 2.38671361912528 0  1.206314791201715 1.382064292497919 0  0.6333752893366955 0.7023738550008095 0  0.7796219811205605 1.42573253164258 0  1.564399711917382 1.026040828857629 0  0.3385416666666666 0.4889012896825397 0  0.1041666666666667 0.390625 0  0.989112246382566 1.543537365516289 0  2.025724425454636 0.9846960595520872 0  0.6602885475034063 2.086117390485779 0  1.607130551925032 1.267198646640915 0  0.1317864544877056 0.8896173683400176 0  1.755387840017567 2.230364320056445 0  1.301540702984401 0.1216289692748247 0  1.433170657577442 0.3331052752740999 0  1.500459610550388 0.113513924782439 0  0.6494291520606965 1.029586599619295 0  1.010146149868299 0.794897284196169 0  0.3700844198238017 2.235390157870766 0  0.3360891767780704 2.36656279435396 0  1.876856241037701 1.437150669863757 0  1.778674102957329 1.245979347269706 0  0.5472829890977179 0.1005517127039925 0  0.4669074189005698 0.3416784232954367 0  1.472765289289269 1.850899166481903 0  1.555853593327178 1.608452097912802 0  0.6708955559113426 1.646561631116984 0  0.8164699620322933 0.5924479455478063 0  0.3167738989468366 1.758696809749795 0  0.2788007305565096 1.605499483471246 0  0.7821720982350511 0.181524936294752 0  1.376812251214195 2.313340247908297 0  1.785652202614777 0.5962261755537186 0  1.761467296310972 0.4679567244718574 0  2.2265625 1.8359375 0  2.3828125 1.9140625 0  0.5279531607054191 2.071552361614785 0  2.397573269551114 0.234375 0  2.383578172599618 0.3589298466020009 0  0.1024267304488855 2.265625 0  0.1164218274003825 2.141070153397999 0  0.2696857594953064 2.135405441512016 0  2.164961300137334 0.1375322943529536 0  2.137757548369486 0.2724194778647587 0  2.238873711826398 0.3626419179496562 0  0.1001414910226386 0.234375 0  0.2176339285714286 0.3478422619047619 0  0.2503620791333544 0.1061694061057066 0  2.336445461915368 0.1250451055247424 0  0.2154004640409726 2.3918124
[...]
<PointData  Scalars="f_49-2"> 
<DataArray  type="Float64"  Name="f_49-2"  format="ascii">3.8536045339695810e-16  1.7454630800185277e-16  2.0778135078532085e-17  1.8244443456723222e-15  1.1124065731450265e-16  2.4656458242448908e-17  4.0843951104349379e-16  4.3155951641778588e-16  3.6143908496628178e-15  2.5429999075649953e-16  1.5549875214492502e-16  3.9629899667019942e-16  4.6981724449324602e-16  1.9694655972410065e-17  5.7422393577569580e-17  7.3089775412938632e-17  1.9217545071820379e-15  7.4162163214556949e-17  4.7601428869701807e-16  1.7097103355160186e-16  5.9709041428975128e-16  1.4159610740710337e-15  2.7698457104054873e-15  1.0014515621696768e-15  3.1011317054724749e-15  4.6333398823212016e-16  1.0520091566740477e-16  4.5501166755350998e-16  4.3341810609798120e-17  4.3133024487829064e-17  4.5680383504350563e-16  1.1572829269924969e-16  5.0829004231959808e-16  2.9528555795831573e-15  1.3618692274223686e-16  2.3621595156565155e-15  7.0339724495658174e-17  4.1040249066661459e-15  3.1457938655673956e-15  1.9643297653392763e-16  1.2787876760894035e-16  5.0366121217796320e-17  1.6723561291462239e-16  1.4735150244639100e-16  6.1158683906601898e-16  3.6351890426818809e-15  4.2211606121751083e-16  5.4857429766266037e-15  4.4481106023816282e-15  8.1837090169063476e-17  1.3514381242426412e-16  3.8505541660337919e-16  3.4060840101296910e-17  2.0682597438854570e-17  3.7102478517712958e-16  4.6764653122988055e-16  4.0114135864017602e-16  1.9061176666836909e-17  4.4217664161588481e-16  5.3568538019217566e-16  2.7190009822021778e-17  1.4870966750444130e-16  5.6399900904062915e-16  6.0319969915261585e-16  5.1271477244497223e-15  4.7416848503417439e-16  4.8343511980986067e-16  4.8635610604567789e-17  4.4398226130337246e-16  6.5299850939707909e-17  2.1575343232696457e-16  9.5992888873943587e-17  4.7332831052246588e-16  3.0285876230754356e-15  1.5950120114356044e-16  5.4452341586433182e-16  5.8037509400151713e-16  2.6124376805905763e-15  4.2816494450261008e-15  9.8715691280634690e-17  1.4793702835563067e-16  1.2310574676253330e-16  9.3899366792343448e-17  8.9004410814539498e-17  5.9348197162205912e-17  2.8363294122920365e-17  3.1243721388055575e-17  4.6951110488085095e-16  4.5991699561976190e-16  4.3050595926555527e-16  4.7239071917964673e-17  3.2320564281035583e-17  1.5850827008705816e-15  3.2530199198548409e-17  4.3410151535790379e-16  7.4250518317256258e-16  4.5232829088408007e-16  3.5733417255545272e-17  5.0843643030946282e-16  4.2224018997706101e-16  5.5354151442562442e-15  4.5968979103572583e-15  4.7090131027266108e-16  1.0897563232333717e-15  8.2732070211860047e-17  3.2233358250090021e-15  3.1731626796975486e-16  1.6394921807097882e-15  9.1159786273067600e-17  1.0140603935595426e-15  4.7099451068885609e-16  4.0583138066280052e-16  3.8562041215865847e-16  4.8062121691034273e-15  1.6368263796505223e-15  1.4260219408807025e-16  1.3195328336512938e-15  5.2938983649240542e-17  4.9296560469169537e-15  4.6273188009055619e-16  4.4735783310275386e-16  4.2920783728064088e-16  3.2388162825581626e-15  6.1992689365006734e-15  1.1129913291111623e-16  1.2232442522960554e-15  5.1190604396771815e-15  4.2266251108958542e-16  7.7285947531320026e-16  8.0129326873431824e-17  1.4240690875407229e-16  2.5051859055736241e-15  5.3954421755853093e-16  8.9137637011328722e-17  5.9569676200394771e-17  5.4846562124679586e-15  1.9879396260648922e-15  3.2225507744144885e-16  4.7183228376817745e-15  5.9764945978001259e-15  1.3822856292169429e-16  1.1414549108707758e-16  1.2402659180055819e-16  1.2061493518622420e-16  1.1575966620512290e-16  4.7884664103589669e-17  2.9020213460171359e-15  1.6849148677039583e-15  4.7209707673058122e-16  3.7697498130909944e-17  1.0699430789361333e-16  7.3732478624488113e-16  1.4501991496423357e-16  4.1815389571108765e-15  6.3721289188466495e-16  5.1864767334423535e-15  5.4888548272233153e-17  5.3465369508626528e-17  6.9949296645004187e-17  7.1902320671990653e-17  9.2300155882948772e-16  1.7461977275846117e-15  2.9548638686007948e-17  2.7735837071791081e-17  2.0274544269765310e-17  3.8427352802550880e-16  4.0915125364179922e-16  4.3193771774372616e-16  4.0089178338019617e-16  4.4697524752583863e-16  1.5340534233263472e-16  1.5333726687606269e-16  2.0804359303499228e-15  1.7241938489405750e-16  1.7371066944948759e-16  1.1222312235232984e-15  1.0729860953961760e-15  1.3265848188143585e-16  4.8920454833773016e-16  1.1508817164742467e-15  4.7291929920791682e-16  4.8740721629754728e-16  4.4571525889209706e-16  3.4440019348412714e-17  3.9864075646574790e-16  3.8833549349638540e-16  2.5973251601501717e-17  4.0433195815979212e-16  2.0905927343359875e-17  2.2674828077975505e-17  4.7085476822039582e-17  1.9315776359082784e-17  9.2716880583029679e-17  1.6224207648578776e-16  1.9857807875258378e-16  4.5193629327540992e-16  4.7367771499452043e-16  4.6067945334015641e-16  3.5164040728678196e-17  2.2065754027765428e-16  4.1736899608315434e-16  4.6710212003580280e-16  2.3276915168889360e-15  8.2816767511559675e-16  4.7147976798441341e-16  4.7475338568403998e-16  4.6932582758614572e-16  4.5819938391789104e-16  1.6451639520096601e-16  2.8797730686172381e-16  7.8807262605310717e-17  4.6524587901616519e-16  7.9102001579020599e-17  4.2888195720939560e-17  5.2464556050196928e-15  2.9982841263211700e-15  4.9105604137800158e-17  1.8797567343095402e-15  9.5062307999583542e-17  4.1925152653048070e-15  7.6746702177678760e-17  4.2162518248416351e-16  6.0996262773476912e-17  4.1759326929022912e-17  4.4528575992137064e-16  3.5977803467339563e-15  1.5353947629300278e-15  4.5727225242155037e-16  1.4000476494513000e-16  6.3951587077898236e-17  4.1338334273124208e-15  1.8235946804264445e-15  3.4691978221129372e-15  5.5428902619491368e-15  3.9288283742298934e-15  4.2613126987410934e-16  1.3000722292688301e-16  1.0673340737044880e-16  8.4315278862989171e-17  5.1595605401189098e-17  7.6163359849544618e-16  9.8168121912962687e-16  4.7348943359711504e-16  2.2936394321409185e-16  1.9193710630953309e-16  1.0073650785483525e-15  1.6038718506556580e-16  5.4733893902452203e-15  6.0641986096523684e-15  6.1472037400836875e-17  3.5467277929142407e-15  2.1915072032003761e-15  5.8904592592294975e-15  3.6191023240426451e-15  8.5899702984007502e-16  1.0612868514377238e-16  3.7811824444080041e-15  8.2701708818094967e-16  2.0124515383577524e-15  5.3860143124419035e-17  4.6006749747647159e-16  3.8393181499184227e-16  3.5008907984175441e-16  3.3023753137475854e-15  1.0726853101547795e-16  9.9479009005574710e-17  8.8074365593661771e-17  3.6167811860047928e-15  4.4685949217836092e-16  4.3774202519741374e-16  4.1434092567270318e-16  2.0115077263745419e-16  1.1338428855222495e-16  1.5838296209503520e-16  1.7313612489799266e-16  5.0434159688432642e-15  4.2136876311666350e-15  4.7446639512850333e-16  2.3219676874288275e-16  4.7400195427771832e-16  4.6900036794817048e-16  1.4660398039514433e-16  5.1822452257908660e-16  7.1708890872730872e-17  7.0214223063916986e-17  3.5727091509823800e-16  1.9293167418810444e-16  4.6080972885718651e-16  2.2760316833740501e-17  2.5285805158057577e-17  4.2935778616046541e-16  4.5037057772963865e-16  4.5019981351983231e-16  3.7981774561849376e-17  4.0437029378880840e-17  3.4948556691079312e-17  1.1499990052099691e-16  2.2105027549919254e-15  1.6841205261430337e-16  2.6173207712976184e-17  4.0718447920080682e-16  4.5168857512842587e-16  1.6931680522813378e-16  7.1210490605825676e-17  1.2931537128992580e-16  1.2111049810733663e-16  1.1252173992255988e-16  4.6601129098232452e-16  1.5483041980376887e-15  4.4726017915896737e-15  4.6713198495973259e-16  5.3524999130782523e-17  2.6542930410851928e-17  2.6070394225918836e-17  1.3632875377996089e-15  3.7756272194390021e-16  4.7343091978823977e-16  4.7234469531014613e-16  9.3296669339286076e-17  8.6397704509190161e-17  1.3673232296504720e-15  6.2102903324621273e-17  2.3467183502628420e-15  4.9698358124034275e-16  6.4052698378170908e-16  4.0027344681502103e-17  1.4150822508930005e-16  4.1088963235386331e-17  5.6802450963789607e-16  4.1478453677695256e-16  2.7874988568003847e-17  2.8918120168462960e-16  6.2187906099832165e-16  4.9385021079465390e-16  2.4455936366115897e-15  5.2128537345974416e-17  4.2117175120401792e-16  4.5841732880667290e-16  4.4219665759545634e-16  3.0636409625647847e-17  4.1174661263822443e-17  6.0874459854842327e-15  7.6637805302355421e-17  8.3583033212131699e-17  4.7245499701668092e-15  6.3833679251367004e-17  3.8739729091708464e-17  3.8551150398842105e-15  6.6285540024324667e-16  4.1530973215133988e-16  4.7371662223942500e-15  7.0125358023884376e-16  4.3792322072274351e-15  2.5344721838079297e-15  8.0361193068635847e-17  4.7145011362197042e-16  4.2016933389163456e-16  2.9779383181090014e-17  2.7767549693061768e-17  4.3280347590425924e-16  4.0145736374047633e-16  2.0411755695986936e-15  2.2952920036121615e-16  5.7532213634180555e-17  1.0389991459240446e-16  3.8792449840780072e-15  8.9616970041866542e-17  4.7177270111200413e-15  4.6478020385057858e-16  4.7886746429219888e-16  3.0121096014306064e-15  4.5947508690601162e-16  1.5433808389418586e-16  3.1239397745854675e-15  5.7018140306621615e-15  3.9019088781482805e-15  3.8639155888248674e-16  5.1325214911941875e-16  4.9618091526017234e-15  5.2388822274915466e-16  3.1592523432824768e-15  1.8253774067229386e-15  5.6974753270210002e-17  2.2407535493292443e-15  1.0226967613474948e-15  3.5207974542659144e-15  5.2712313134578270e-16  4.6328231018210774e-16  3.5167154846114291e-17  9.6224402010470127e-16  1.1363243436196840e-16  1.5454836168266160e-16  4.4584593154038441e-16  3.5649158827815632e-16  4.2043597721178829e-15  1.4378413020786060e-15  3.1025552572785937e-15  7.9012237936888924e-17  8.2915610391219543e-17  4.9771567384088892e-15  2.1079744381631585e-16  3.8270831216871103e-16  6.0935904396510568e-17  4.8552882652813432e-17  6.0170041443014714e-15  5.0028552508925571e-17  8.3460160664398189e-16  4.6941925020045782e-16  5.1688261002342758e-15  2.3855318941040152e-17  1.2012175376926489e-16  1.2121366468758979e-16  1.7872700317147749e-16  3.6665123503633158e-17  4.7352584258768286e-16  4.6669454779497054e-16  1.9714588407225723e-16  5.1489369466866029e-15  1.1177606221363465e-15  3.8991799497050449e-16  5.2995608952152726e-15  3.0512123175135472e-15  2.7662923749439461e-15  1.6144003867388913e-15  4.6524089705060525e-16  4.2931057657088132e-16  4.7427623856540889e-16  2.2449307243585293e-15  4.8556855257277217e-15  4.0467010858255523e-15  1.4969840359182879e-16  5.9331126685684425e-15  4.1498303490792952e-16  4.3376516134254322e-16  4.6591760734587392e-17  1.1305856987978905e-16  4.6829290624921166e-16  9.7775467750134627e-17  2.5648740871018018e-15  1.4827645455150379e-16  3.2106655503909084e-17  4.7365209320781110e-16  1.8773798039390513e-15  6.3556966968525520e-17  3.1323278928712428e-15  5.9910761056074657e-15  4.2550964387769634e-15  1.0300737347171523e-16  1.3478436565592182e-16  3.0650881179588597e-17  3.2167902604190121e-15  4.0416608139576408e-16  7.8740381701323519e-16  4.5342286926291899e-16  3.6710732278149424e-17  4.0096074392382286e-16  1.8416097611599957e-16  3.2449446157964476e-15  6.1407497725362023e-15  3.2159364622337353e-16  5.5404134007549689e-15  8.9372340087619233e-17  4.3625474392315578e-16  4.0073590237491405e-17  4.4479382271245102e-17  4.4948950873148960e-16  4.4005969523784383e-16  7.2412895856900561e-16  8.8742753677086300e-17  6.0484703833176754e-16  5.2440481297583770e-17  1.4580488199004617e-16  1.4485647845979690e-16  1.2096585137015429e-16  1.0747465841743193e-16  1.0659487970115307e-16  3.4407500086447695e-15  1.8260897646314234e-15  5.7371987664034629e-15  1.6197688319695143e-16  3.8752240937839786e-16  4.3356554945263892e-15  3.6073068377395495e-15  4.3274388772606722e-16  6.0965671563137807e-16  6.7674587902121398e-16  1.8161200642942155e-16  1.2645798595634831e-16  2.1469647062801990e-15  4.5405550681893235e-16  4.9251946666216046e-16  9.7104718950924330e-17  2.3160472683435906e-16  1.0014548488436253e-16  2.0739044150906398e-17  3.9455917102435729e-17  6.9922391441205165e-17  4.5010762788635276e-15  4.7036173079530856e-16  2.5438548452680767e-15  5.2839004279046102e-17  1.1782953830400262e-16  2.0921139358776836e-15  1.6402000092802753e-16  1.9174359445590266e-17  2.4063005391386813e-17  4.1894647758144977e-16  1.3518846413589275e-16  4.7340420371955026e-16  4.7374306082053014e-16  7.2694031916692265e-17  3.8187203631728552e-15  1.3259360412890734e-16  8.7294054280334319e-16  1.3402469558605480e-16  5.9031202475663676e-16  6.0435068137472571e-17  4.7342297778750220e-16  4.6740219500058973e-16  4.0551332899813403e-16  4.0931491685841030e-16  1.2468745428929058e-16  1.4357506497510030e-16  1.7130450800703437e-15  3.1656948992483769e-17  4.4843111971532285e-16  4.7488767381032936e-16  8.0880492842444302e-17  7.1892943956902138e-17  9.3881812409214661e-16  4.6081972728888111e-16  5.2846979754272739e-16  4.3993208718022003e-17  1.1449973691451363e-16  2.0326448927914115e-17  5.0088506164047924e-17  4.9120089618503637e-17  5.9264997563574215e-17  8.8294436559431667e-17  2.8420411724004594e-16  5.1214760388363925e-17  2.0800651547417599e-17  4.6771533304541645e-16  4.1415835679895038e-17  4.0460508710992024e-16  4.1547420675338142e-16  8.8398218465544996e-17  2.1749394299274570e-15  1.4119480320488603e-15  1.8073009000313800e-16  7.7220174071987422e-16  1.7165148771851460e-15  1.2552864718510732e-16  1.2900464962420296e-16  2.8941220438325500e-17  4.4378362739659845e-16  5.2834123799234603e-16  1.3809992223173918e-16  1.0413668119572341e-15  4.3737724341958445e-16  3.1833170174353507e-17  3.2655394068227138e-16  2.9805714410514206e-15  6.4538775883280025e-16  8.6437398421325685e-16  2.2907286984066997e-17  1.3091556194317892e-15  3.5046248557160578e-16  2.4199208051827048e-17  4.1967781597567372e-16  8.9460428663058037e-17  7.8674012539978716e-17  1.2650005619771899e-15  1.4851381731900208e-15  4.6772470604938101e-15  3.2327136862107111e-15  4.1717436789452865e-16  3.5636289452548814e-16  4.6555400733265993e-16  4.2932589903294560e-15  3.9726608403030046e-17  2.4773032504467081e-17  4.8119184840663044e-16  5.3590003317612334e-15  1.5682050616290294e-16  9.0220417063537647e-17  1.2124552212521289e-16  4.3988051787713928e-15  3.7599063043958772e-16  5.6959640518754683e-16  4.9878129225855046e-15  4.3765904825504443e-16  6.0621947045947461e-16  1.2742372354573347e-16  4.3165016416492907e-17  6.5235451479282885e-17  1.5877041095796883e-16  4.4726052891932801e-16  1.4931278343595671e-16  1.5555382873577936e-16  1.5128577798132162e-16  2.6279760770045990e-16  1.5417160037097910e-16  2.6971073482785693e-17  2.1891856455606113e-17  5.9221030733335416e-15  3.4822311393752509e-15  3.4907408076038734e-16  4.5615565801105742e-16  1.5564186985138050e-15  3.5631678848876673e-15  3.6445994002252782e-17  1.3159321555170858e-16  7.4293203547813673e-16  3.3281323821944211e-17  1.1134746785489196e-15  1.9310093350191432e-15  3.9792896215304739e-15  2.9194583740123940e-16  1.0643474405559216e-15  1.0080422036099369e-16  4.8597043863067789e-16  4.3618433636587443e-16  1.7331432751044029e-16  1.7513523527248677e-16  2.0257110623834018e-15  1.0318714165417300e-16  2.1379775973727580e-15  1.6612461401266653e-16  4.5005221342426659e-16  2.2176394402795658e-17  1.2037108250927535e-15  3.1199504532381901e-15  8.2486388620241707e-17  2.0005229939260848e-16  6.4759638542276868e-16  1.2821101602784398e-16  2.5488834559698192e-15  1.6728243702317178e-16  3.2801713591222037e-17  4.6823466459008235e-17  1.3268655649993877e-16  4.6888919021831558e-17  4.4746705485956853e-15  4.7281016586506068e-16  4.5551222021581348e-16  4.6585213871174949e-16  5.1019882178353622e-16  4.0299422914491727e-15  6.9978873725454641e-17  3.1310321037556334e-15  6.0927582031713616e-15  4.2131047347241185e-15  1.3612010144931001e-16  3.4854274905585740e-17  2.9315656560351963e-17  4.5125259810640873e-16  4.3110991457153329e-16  4.5384421003026300e-16  3.1993840214180945e-17  1.1626478819319068e-16  3.3923123640765670e-15  3.9951037290320119e-16  3.5854910003047768e-15  3.9914456176384968e-16  3.8582772762863680e-16  4.1105573008958526e-16  4.7152018046494307e-16  3.9848815930850980e-16  3.0294817079593526e-17  6.2111856050613334e-17  7.5398209525649905e-17  2.3503702107386505e-17  2.5570745341970944e-17  2.6426911669217828e-17  3.9085767873332085e-16  4.2027931175083588e-16  4.4240932951799568e-16  4.0586881304454703e-16  2.7988483328054689e-16  1.3998275893334417e-16  5.2335393588284600e-17  4.6651005514813827e-16  3.8328162810635019e-16  1.7051764935743669e-16  4.2388801177507275e-16  1.9404633452771850e-17  1.5957116228262557e-16  8.8423337688045500e-17  1.6578351906321694e-16  1.5786143232641888e-16  1.4905153586269094e-15  8.9837124437608322e-16  1.5936500915933004e-15  2.3313085518062271e-15  4.6233962747758304e-16  4.5213201197889155e-16  2.2831365369619297e-16  4.5834410536562608e-17  3.6671090255313489e-16  1.9114581128682870e-17  6.3124116634575387e-17  5.0271235038270996e-16  1.4671349890179494e-15  4.1164905673895504e-16  9.8041264947429760e-17  4.2522941188428101e-16  8.5629363496542747e-16  5.1664788345167427e-15  2.0882311923457984e-15  1.6846691251906602e-16  1.6292697556651895e-16  5.1185736049136300e-15  2.3647727617640085e-16  4.6415365922638234e-16  2.5334118907605538e-15  1.2800460564601840e-16  4.6377748482547495e-16  4.5892767494675294e-16  4.6707599619644169e-16  4.7029026140259740e-16  4.4342828237067114e-16  2.8739244222465912e-16  8.0393532802558001e-16  3.9059319382107642e-17  5.3643709449963127e-15  4.9397338263254382e-16  4.5154940470903678e-17  5.4382211620170953e-15  3.0495087233665878e-17  4.6438370118331117e-16  4.8341696152259377e-16  5.2404378603151854e-15  4.3381394652563502e-16  4.7593926002055138e-15  4.7080683221006278e-16  9.9658749771903659e-17  4.9884855697406398e-15  6.1350990328134661e-15  5.6197144877122406e-17  3.3837956746921107e-17  3.3316511932374992e-15  4.3613451245868306e-17  3.6913658482084686e-17  1.0544655302677766e-15  8.8413383514177808e-17  2.8000924163167652e-16  1.8652984989786307e-16  2.8034720189108223e-16  7.3548604499471613e-17  4.7296549445177707e-16  4.7465793711978382e-16  2.5514654227230461e-15  1.0395011256707699e-16  7.3545784463275916e-17  7.8660709547632349e-17  6.0733275207499327e-17  4.5432871340020237e-16  4.5212121004116544e-16  6.4472582978147881e-16  4.7460327166465001e-16  1.1402439538689476e-16  4.7284319294181755e-16  4.7118663142242358e-16  5.5419134206146423e-16  1.2568125351036099e-16  6.9248330206504516e-17  6.2793497184976365e-17  4.5875702032215642e-16  6.0139414454560787e-16  4.6838594524035679e-16  4.7046360324784615e-16  4.7371746267038754e-16  1.1302396537089176e-15  3.8362570866684359e-17  4.4816879735208854e-16  4.5495847427626654e-16  4.4405736533463538e-16  4.4661225121319270e-16  4.3632162845107621e-16  1.2792791470621431e-15  1.8387720598186804e-15  9.5857009905708444e-17  5.7884967396035414e-17  2.5477210294094069e-17  4.6346799729803702e-17  1.0545954793852054e-15  5.7240294060755065e-16  4.2658561301263716e-16  6.6259075583587795e-16  4.8818467884639372e-17  1.3626813330190713e-15  1.0505899153939356e-16  2.2685582386997129e-15  2.9776725385974101e-15  5.6736307282502738e-17  3.5636424854696886e-15  4.5869014375592985e-15  2.5175827986680546e-16  4.4214624089386969e-17  3.9989111186983500e-16  4.5730647752123986e-16  5.9221644920849609e-15  1.4684466791685450e-15  4.4042470066981342e-16  4.8344023622550609e-15  5.1569534885582751e-15  4.7462177967580103e-16  2.8990745173948858e-17  1.1914692240018933e-16  3.5816613171347590e-15  4.6132257810783360e-16  4.5092930487555181e-16  4.3342621081114841e-16  4.0966740379845552e-16  5.3802624242816682e-17  3.9950677135382967e-16  5.5106668472776121e-17  2.8743161749076159e-17  3.9493282784880788e-15  4.5472372753017841e-16  8.3092085150400786e-17  2.9001119160065050e-15  4.3409628594007894e-17  3.1837801905813804e-15  4.2809663814347996e-16  4.3919296935515990e-16  4.4959638445509454e-16  4.2541272351036254e-16  2.0303581281015