<?xml version="1.0"?>
<VTKFile type="UnstructuredGrid"  version="0.1"  >
<UnstructuredGrid>
<Piece  NumberOfPoints="6486" NumberOfCells="12696">
<Points>
<DataArray  type="Float64"  NumberOfComponents="3"  format="ascii">0 2.5 0  0 0 0  2.5 0 0  2.5 2.5 0  1.25 0 0  2.5 1.25 0  1.25 2.5 0  0 1.25 0  1.25 1.25 0  0 0.625 0  0.625 0 0  0.625 2.5 0  0 1.875 0  2.5 0.625 0  1.875 0 0  2.5 1.875 0  1.875 2.5 0  1.770833333333333 0.7291666666666666 0  0.7291666666666666 1.770833333333333 0  0.9375 0.625 0  1.875 1.5625 0  0.642361111111111 1.163194444444444 0  1.341594827586207 1.883979885057471 0  0.46875 0.46875 0  2.03125 2.03125 0  0.3626104797979798 1.513178661616162 0  1.381740196078431 0.4564950980392157 0  0.9375 2.172619047619047 0  2.172619047619047 0.9375 0  2.096354166666667 0.4036458333333332 0  0.4036458333333333 2.096354166666667 0  1.684027777777778 1.163194444444444 0  0.3418803418803419 0.8693910256410255 0  1.642742622813391 2.162164207604464 0  1.275619849389031 0.8465650753054845 0  0.9136284722222221 1.434461805555556 0  1.732437511238546 0.3406962303960658 0  0.9714402568595876 1.029779313093998 0  1.52281746031746 1.485615079365079 0  2.1875 1.71875 0  1.06819722569879 0.2997236128493951 0  2.136114211309524 1.303478422619048 0  0.3125 0 0  0 0.3125 0  2.5 2.1875 0  2.1875 2.5 0  0.3200021620376328 1.192323085056694 0  0.6738456129277992 0.8304377375553881 0  1.757891808928991 1.861952730357003 0  1.5625 0 0  0.9375 0 0  0.3125 2.5 0  2.1875 0 0  2.5 0.9375 0  0 0.9375 0  0 1.5625 0  0.9375 2.5 0  2.5 0.3125 0  0 2.1875 0  1.5625 2.5 0  2.5 1.5625 0  0.7448220909826522 0.3003573636608841 0  1.027298850574712 1.871151477832512 0  1.331260495098891 2.197262878816185 0  1.207917681892289 1.582765010956622 0  0.4339993447432606 1.801186844743261 0  0.6337298768939392 1.443093039772727 0  2.049851190476191 0.6826636904761904 0  0.6584821428571428 2.219122023809524 0  1.89575676467455 0.9798457973793544 0  1.437570562095628 1.059380588255917 0  1.502090052505845 0.6987070896496241 0  0.2040860661083546 1.705323965099331 0  0.2083333333333333 0.46875 0  0.5070952039991439 0.2211150679997147 0  0.6916302856529919 0.5813591430410241 0  2.265625 1.953125 0  2.2265625 2.2265625 0  1.886424081252096 2.243391360417365 0  1.40625 0.202164758520858 0  0.2269345238095238 0.2269345238095238 0  1.152730869673694 0.5225850378741401 0  1.885631899587912 1.312095130148776 0  1.614808884009367 0.9049784971014416 0  1.890095442220658 0.5126535558463003 0  2.323168682795699 0.46875 0  2.268811725689575 0.2304742875213018 0  0.6002389442105756 1.967426444210576 0  0.1768313172043011 2.03125 0  0.2311882743104251 2.269525712478698 0  2.03125 0.176831317204301 0  2.280262553344767 0.6954945504579233 0  1.979219539285994 1.809922269642997 0  2.336309523809524 1.09375 0  1.09375 2.336309523809524 0  0.9314042474388009 1.662973812215543 0  0.1634067999087722 1.40625 0  2.337090640094896 1.40625 0  1.141616997467638 2.069311773587991 0  0.46875 2.338939559681489 0  1.542440307908715 1.734944797244472 0  1.556713687786879 1.956977865354753 0  0.8264238995344066 1.975424467820646 0  1.466326331454725 1.275271369760862 0  1.655675324257095 0.5444159974393489 0  0.3385416666666666 0.6479255698005697 0  0 0.78125 0  0.5236073939200119 0.984090461540625 0  2.091665741047893 1.519793517904215 0  1.71875 2.5 0  0.5356538886262603 1.623137930505009 0  0 1.09375 0  0.1932884281517095 1.015625 0  0.8569313582417669 1.2198915584249 0  0.8876981284879677 0.8329884081524883 0  1.115618488474214 0.7219586973356271 0  1.186950366204949 1.043465130075318 0  2.057459118787237 1.110823087309335 0  1.830651283878689 2.049810069572418 0  1.689107969301489 1.367247437031697 0  0.4921048768039656 1.298643370653124 0  0.8213975694444444 2.336309523809524 0  2.03125 2.5 0  1.049729400480002 1.283723261332814 0  1.308101375801673 0.6489479469700392 0  2.5 2.34375 0  0.4968777175037714 0.7562964879736076 0  1.40625 2.5 0  1.501347663534097 2.307027627307738 0  1.602813712048603 0.1926218191360736 0  0.8393082906308107 0.463778306132633 0  1.682663349152719 1.598471865581041 0  0.7774174680851571 1.560004941327907 0  1.554204170364662 0.3898593897892066 0  1.842184459051087 0.186443880058197 0  1.358107417651776 1.696381759610015 0  1.18859291992392 1.77598670078022 0  0.1875331222687418 0.7609599743339348 0  1.339536743965101 1.422080365801479 0  0.7788179348750389 0.9955343414928611 0  0.9062978492805438 0.1919636509126373 0  1.256007360640958 0.3160320559396114 0  1.09375 0 0  1.174986727221844 0.1594990293443933 0  2.34375 1.796875 0  2.318026474511116 1.589177949022232 0  2.34375 2.5 0  1.672742954892153 2.332882724550692 0  0.2683637361947215 1.874801596909639 0  2.174770749820102 0.5581009131310781 0  1.443279522965991 0.8870068372898454 0  0.3385416666666667 0.3571428571428572 0  0.78125 0 0  2.060421048269335 2.314363248763811 0  1.088078737088509 0.8967352118723447 0  1.087825368444708 1.454931510884769 0  2.018308232129541 0.8548495425854904 0  1.943987311736842 0.3246298523011434 0  1.71875 0 0  1.85337849796276 1.144833312386208 0  2.3486328125 2.1044921875 0  1.407588788651747 2.042968789119587 0  2.336309523809524 0.865366648092144 0  2.34375 0 0  2.5 0.15625 0  0.15625 2.5 0  0 2.34375 0  0.1638044648294291 1.242263417405867 0  0.356216654757926 1.032569427322806 0  0.3188217956111817 1.355736727000647 0  0.5924956460852111 0.36112522004736 0  0.6594216488965849 0.1603472116132387 0  1.841804599497131 1.72214349266521 0  0.15625 0 0  0 0.15625 0  2.115898634821499 1.894570904464496 0  0.7821877980253907 0.7129993435924866 0  1.003820447087786 0.4516053462784233 0  0.477562948779147 1.138333049293613 0  0.719493678605015 1.305655360135975 0  0.9772457618587566 2.020350128938537 0  0.8764738248887107 1.826219722709673 0  1.254787875123819 2.339010653832026 0  2.343597354852534 1.249982759769001 0  0.78125 2.5 0  0.46875 2.5 0  2.5 1.40625 0  1.09375 2.5 0  2.5 0.78125 0  2.5 1.09375 0  2.03125 0 0  2.5 0.46875 0  1.40625 0 0  0.46875 0 0  0 0.46875 0  0 1.40625 0  0 1.71875 0  0 2.03125 0  2.5 1.71875 0  2.5 2.03125 0  2.005424054645407 1.653223486966518 0  0.1538730573856537 1.559850281736677 0  2.33984375 2.33984375 0  1.166539506212474 1.922878979538754 0  0.3914885633949916 1.65887232812171 0  0.5795503163042564 1.766243562569382 0  0.399533125920212 1.946786875081388 0  0.7866324979014098 2.127719094551316 0  0.3654683023546834 0.1495701132219454 0  0.1527388747131078 0.6116379440619215 0  2.013737577140188 1.391056634712135 0  1.17635437372994 2.213329084238133 0  1.737118141866284 1.010577140843115 0  2.200707118087222 1.164723314085963 0  1.697018908736685 1.993548551451517 0  0.5387621649009668 0.6070503962352419 0  2.032805785855952 0.5330427622570983 0  1.082699501358059 1.667818725183932 0  1.503819781540653 0.5468420196858188 0  2.015409142866072 2.175941657590429 0  1.752057611265444 0.869642097111018 0  0.612251684107783 2.356045720700959 0  1.902817102342857 0.6607642211999982 0  2.159616561739693 0.7867739969338844 0  0.5120038350106624 2.197302352398502 0  1.888200216011548 1.919501662489862 0  1.495909909726654 2.16028358757309 0  0.489139876703609 1.443203008943564 0  0.8819175670410521 0.3301172743913011 0  1.882591144370812 0.8155965192707721 0  1.133979796994841 1.172526771862882 0  2.206217447916667 2.084147135416667 0  2.20361328125 2.36279296875 0  1.395746985657004 1.556054166359645 0  1.704383111516207 1.734750450338683 0  0.9575737847222222 2.36274223823052 0  1.035150984253136 0.1302833343179028 0  1.383966125325753 0.7651479963479179 0  1.64003252158672 0.6824316405528895 0  2.22550785055421 1.487078576356817 0  1.760964431499756 1.48495222505201 0  1.276460980673788 2.004207003584658 0  0.1341477688427096 1.828777507920502 0  1.542261434180652 1.155296658359034 0  1.334627911613854 0.9696897472490321 0  1.30794231473696 1.119420615785191 0  0.7028260459857245 0.4438906910721139 0  1.625757433094055 1.84268057552138 0  0.9818707849053143 1.165603626132254 0  2.0086489901463 1.243134585689553 0  1.934584460420609 2.374094051915812 0  1.798434376789567 2.38671361912528 0  1.206314791201715 1.382064292497919 0  0.6333752893366955 0.7023738550008095 0  0.7796219811205605 1.42573253164258 0  1.564399711917382 1.026040828857629 0  0.3385416666666666 0.4889012896825397 0  0.1041666666666667 0.390625 0  0.989112246382566 1.543537365516289 0  2.025724425454636 0.9846960595520872 0  0.6602885475034063 2.086117390485779 0  1.607130551925032 1.267198646640915 0  0.1317864544877056 0.8896173683400176 0  1.755387840017567 2.230364320056445 0  1.301540702984401 0.1216289692748247 0  1.433170657577442 0.3331052752740999 0  1.500459610550388 0.113513924782439 0  0.6494291520606965 1.029586599619295 0  1.010146149868299 0.794897284196169 0  0.3700844198238017 2.235390157870766 0  0.3360891767780704 2.36656279435396 0  1.876856241037701 1.437150669863757 0  1.778674102957329 1.245979347269706 0  0.5472829890977179 0.1005517127039925 0  0.4669074189005698 0.3416784232954367 0  1.472765289289269 1.850899166481903 0  1.555853593327178 1.608452097912802 0  0.6708955559113426 1.646561631116984 0  0.8164699620322933 0.5924479455478063 0  0.3167738989468366 1.758696809749795 0  0.2788007305565096 1.605499483471246 0  0.7821720982350511 0.181524936294752 0  1.376812251214195 2.313340247908297 0  1.785652202614777 0.5962261755537186 0  1.761467296310972 0.4679567244718574 0  2.2265625 1.8359375 0  2.3828125 1.9140625 0  0.5279531607054191 2.071552361614785 0  2.397573269551114 0.234375 0  2.383578172599618 0.3589298466020009 0  0.1024267304488855 2.265625 0  0.1164218274003825 2.141070153397999 0  0.2696857594953064 2.135405441512016 0  2.164961300137334 0.1375322943529536 0  2.137757548369486 0.2724194778647587 0  2.238873711826398 0.3626419179496562 0  0.1001414910226386 0.234375 0  0.2176339285714286 0.3478422619047619 0  0.2503620791333544 0.1061694061057066 0  2.336445461915368 0.1250451055247424 0  0.2154004640409726 2.3918124
[...]
<PointData  Scalars="f_49-2"> 
<DataArray  type="Float64"  Name="f_49-2"  format="ascii">7.9488318169464345e-16  3.6111161988433058e-16  1.1631456171362561e-16  5.4330734854563023e-15  2.7369277902819738e-16  1.2518219882104725e-16  8.1140654806298383e-16  7.1848760445201975e-16  5.7791583734838607e-15  4.6487402289725789e-16  3.3592621056767078e-16  8.0205342051094359e-16  8.2576536752756157e-16  1.1375662313973887e-16  1.8858729286100530e-16  2.4091770629689773e-16  3.5872991422301878e-15  2.1664221274222522e-16  8.1634634875850738e-16  3.6177949415785502e-16  1.1802629221296549e-15  2.0663662868369722e-15  4.3721843565593050e-15  1.5369778735571337e-15  6.3494914581720786e-15  7.7735875929546300e-16  2.6476046764022274e-16  8.3086395223658015e-16  1.6319439911510797e-16  1.6289096862200061e-16  8.2964773647341783e-16  2.8581216417854850e-16  8.0487018167236744e-16  5.0090756312011288e-15  3.1229759473993342e-16  3.4753663451883182e-15  2.1036046713157782e-16  6.2101529558885410e-15  5.3738493953458481e-15  4.7571384557408148e-16  2.9769807969196045e-16  1.7624033531439082e-16  3.5157328709516710e-16  3.2633815838567266e-16  1.7093909040506353e-15  7.9141978482289184e-15  7.0308162133202416e-16  7.7810214223547909e-15  8.0655335715597658e-15  2.2889605379317475e-16  3.0794638123232071e-16  7.9473452715886674e-16  1.4516528676196882e-16  1.1610548670414330e-16  6.2564650874619193e-16  7.8898136795928113e-16  8.0528706184023594e-16  1.1213006958781219e-16  8.2560589516732802e-16  1.0310199969850879e-15  1.3097576244242919e-16  3.2672192071137377e-16  9.5828680321380436e-16  1.0721876897881074e-15  7.7995258217558079e-15  8.1684224813173418e-16  8.0101730263695980e-16  1.7298930691742391e-16  8.2671307538675002e-16  2.0203378696839170e-16  4.4322277778574236e-16  2.5091573519355572e-16  8.0827225830710549e-16  4.0675961258483031e-15  3.4130854676551955e-16  9.0938420582135964e-16  1.3668035862226845e-15  6.0389347494722470e-15  7.9384869873478148e-15  2.5501850482937754e-16  3.2580627762505126e-16  2.9090315477702672e-16  2.5240237099541441e-16  2.4022748626926139e-16  1.9189370194101718e-16  1.3345366898372426e-16  1.3942851294486914e-16  8.2773018059370609e-16  8.2953048438842020e-16  8.2080603286043217e-16  1.7051059434427702e-16  1.4169957541959245e-16  3.1909315976357350e-15  1.4203013435329810e-16  8.2419614221350462e-16  1.1942218628135992e-15  7.5504930396793341e-16  1.4864799420145267e-16  8.9981269023104102e-16  8.1685606738364819e-16  9.2140669499601791e-15  7.5820954391825262e-15  8.2917010580636632e-16  1.8946847009714717e-15  2.3033385845389084e-16  4.3790072686942197e-15  5.4995344411425737e-16  2.3399563958049763e-15  2.5366182828399263e-16  1.8760652121279702e-15  7.9679571682570954e-16  6.7744217084276113e-16  6.4707126191701784e-16  6.8949642348726111e-15  2.5515602401219298e-15  3.2049771940537474e-16  2.1666317028696685e-15  1.8076245842321955e-16  9.0516153828396494e-15  8.8987194745309201e-16  7.4268628385152445e-16  8.2058220067602965e-16  6.4177703629729250e-15  9.2593494893954014e-15  2.7377799874676232e-16  3.5444923709816476e-15  7.0115451053703183e-15  8.3548308100706876e-16  1.3783653405053023e-15  2.2619124344167426e-16  3.1811520232018942e-16  4.5007002023424048e-15  8.8978398299494307e-16  2.4034587321906476e-16  1.9228217153934478e-16  8.5910181758463042e-15  3.0825050038329246e-15  5.5593898985749721e-16  7.6077075550606133e-15  8.5167211482973351e-15  3.1225102253002415e-16  2.7794231127877115e-16  2.9221143950261502e-16  2.8731969334137879e-16  3.2379131504730507e-16  1.7338939557123911e-16  7.3217062840867108e-15  2.9549375406562276e-15  8.2394169001613825e-16  1.5245302604386048e-16  2.6796819030367287e-16  1.1443080974905203e-15  3.2164464664121347e-16  8.4943583658787947e-15  1.0857484250786988e-15  7.7277800880023686e-15  1.8414895626776664e-16  1.8164193059427523e-16  2.0972155570755575e-16  2.1320235970106586e-16  2.2956443017258194e-15  2.8558326422398061e-15  1.3586969422349217e-16  1.3206073007032533e-16  1.1514905382424863e-16  7.9422929109294284e-16  8.0933615972276130e-16  7.1905452064752010e-16  6.6722295392386098e-16  7.4505799214897414e-16  3.3329006455072925e-16  3.3301204013387802e-16  3.9647971237558226e-15  3.5836000167985585e-16  3.6005601219440451e-16  2.4213123821020404e-15  1.6964250923079034e-15  3.0446861610491512e-16  7.9066981885664327e-16  1.7219601204789301e-15  8.3780622728786257e-16  8.3872954218724644e-16  8.4182184196362754e-16  1.4606426423051283e-16  8.0369512779883847e-16  7.9703168578450447e-16  1.2825421078262653e-16  8.0744526280047939e-16  1.1672921344471506e-16  1.2070248197275245e-16  1.7021504411772683e-16  1.1272931548753811e-16  2.4584302474544165e-16  3.4496502370958712e-16  3.9194554355293007e-16  7.5456701040570456e-16  8.1080323280309159e-16  8.2928281217729566e-16  1.4891146932557788e-16  6.2453984740359954e-16  8.8111120351725745e-16  7.8717655797552479e-16  5.8568484166628336e-15  1.3643227510809453e-15  7.9852233863459643e-16  8.1446840436252100e-16  8.2741642092138727e-16  8.3047728530696524e-16  3.4799129689327675e-16  5.0883300463592499e-16  2.2761986015086419e-16  8.5192880204213797e-16  2.2469468752163688e-16  1.6245633769266138e-16  9.0797267523933104e-15  4.3185659648752931e-15  1.7386172267635749e-16  2.8692601133954585e-15  2.4948315428442559e-16  8.3985414952321183e-15  2.2082878160715158e-16  8.1669454624514578e-16  1.9466209267418331e-16  1.6025160149231904e-16  8.2697023545259431e-16  6.9117066660889352e-15  2.5815368998519911e-15  7.6449631754610169e-16  3.1472870346296998e-16  1.9974881163870222e-16  6.4363854627436871e-15  4.1684132366543538e-15  7.8470291120052302e-15  8.9580905724928102e-15  7.0382425877935206e-15  8.1937589507670998e-16  3.0072237955954854e-16  2.6709756464352686e-16  2.3284298512030036e-16  1.7934455859212856e-16  1.4402042209049365e-15  1.6206068589335651e-15  8.2024496600722528e-16  4.7166133455755327e-16  4.0165394074298091e-16  1.7103665764492904e-15  3.4415702299849442e-16  9.3147197430006921e-15  8.9565089659317176e-15  1.9583065874717711e-16  6.6881325547508963e-15  3.9443094097087144e-15  9.0955417556281675e-15  5.2349116441467178e-15  1.3280357416758606e-15  2.6760249641921312e-16  5.1876322353313924e-15  1.1983476169420421e-15  3.0140141863870430e-15  1.8236922146952716e-16  8.3026534114225859e-16  7.3842705921693080e-16  5.9563807140280956e-16  5.7861216774019189e-15  2.6781067261249495e-16  2.5615727908725885e-16  2.3867564108454196e-16  5.0735486213157474e-15  7.8560604783048359e-16  8.2405840720343643e-16  8.1260272633083569e-16  4.4668390485314839e-16  2.8409704415487306e-16  3.3980973637795964e-16  3.6179964791330153e-16  8.1355825498170512e-15  7.2217512776775067e-15  8.0474506264064800e-16  4.5217115563852955e-16  8.1325787276521012e-16  7.9175913972846069e-16  3.2382746175647009e-16  9.5839626558249532e-16  2.1258840223499676e-16  2.1013888835686370e-16  8.3000862698664788e-16  5.1244934379453681e-16  8.2996140320258597e-16  1.2092259819236325e-16  1.2667325169292903e-16  8.2008870255458091e-16  8.2809385949443158e-16  8.2817841966508572e-16  1.5297663758040330e-16  1.5781892544590026e-16  1.4713941387944793e-16  2.8450798308160006e-16  3.0445190370738366e-15  3.5312196678935485e-16  1.2861651441349056e-16  8.0830994749820891e-16  8.3180024472929152e-16  3.5433863601505972e-16  2.1179685230829483e-16  2.9990180667033696e-16  2.8802924784302956e-16  2.7556554492043965e-16  8.2886512564447844e-16  2.7708914521383799e-15  6.3386406974504511e-15  8.2797818893238250e-16  1.8178717532803187e-16  1.2956626621964220e-16  1.2847000482981422e-16  3.5533773742213184e-15  6.6154060583736470e-16  8.2477053517669961e-16  8.2407985899840599e-16  2.4679384510307420e-16  2.4803340714653143e-16  2.3904737927776401e-15  1.9660295043815723e-16  3.2708677022938997e-15  8.4007011526586963e-16  1.0590448798143730e-15  1.5694512615959820e-16  3.1680179674077193e-16  1.5898822686833853e-16  1.0025768920083328e-15  6.9142217222043470e-16  1.3231599640953985e-16  5.1158196980437725e-16  9.8118473608215154e-16  1.0596619959032075e-15  4.9511980964164794e-15  1.7927623361851892e-16  8.1817788706107355e-16  7.6695289856902095e-16  7.3661410308589045e-16  1.3828098090610506e-16  1.5921821303458730e-16  8.8076184653578979e-15  2.2059978915277851e-16  2.3171329935539298e-16  8.9201627001718570e-15  1.9953037701631254e-16  1.5548863403082500e-16  6.4528240003698881e-15  1.1759847541119351e-15  8.1338899272699638e-16  6.8709189043420910e-15  1.0546152636821982e-15  6.0481626004624227e-15  3.4474569796819766e-15  2.2655865112066470e-16  8.0058709903410193e-16  6.9987929165968009e-16  1.3645264566763573e-16  1.3202501626168405e-16  8.3742267108837337e-16  8.0486186937648679e-16  5.6004311901159357e-15  5.0921557008731135e-16  1.8970143346666519e-16  2.6282591342420239e-16  8.0434735271777183e-15  2.4108882338430588e-16  8.2552452140992812e-15  8.3155370669389104e-16  8.3630458415032360e-16  4.9344326513207791e-15  7.6957762545852127e-16  3.3414075955735117e-16  6.7550006627423797e-15  9.2881552095119617e-15  6.0050323249117841e-15  7.0330701955977334e-16  9.7490809910952360e-16  6.8922771056120060e-15  8.9410168342545214e-16  4.7045883324953001e-15  2.8626228563547943e-15  1.8775588702683716e-16  3.2654112539685854e-15  1.6252965824204349e-15  5.2760913409596018e-15  9.1472264620124713e-16  8.3624805923450356e-16  1.4738082735163702e-16  1.4915471616240010e-15  2.7719741449236334e-16  3.3464696153885279e-16  8.2762264320017937e-16  6.0444282928152521e-16  6.2482999573317295e-15  3.1966590013071318e-15  5.2055955301779600e-15  2.2439991241798728e-16  2.4711587534561220e-16  7.3082511754765076e-15  4.0780550401144698e-16  6.4272429415301093e-16  1.9466432392960990e-16  1.7289645629883562e-16  9.4211360541794464e-15  1.7557929913139064e-16  1.5087903019955909e-15  7.9001503624172818e-16  7.1231296911250516e-15  1.2346154619310373e-16  2.8664745408048696e-16  2.8869037128349572e-16  3.7702025421277111e-16  1.5050073770922045e-16  8.0610901835333961e-16  7.8531040574975023e-16  4.3271688759065582e-16  7.0546327142432863e-15  1.6444767603296916e-15  7.9803703746611960e-16  8.2005991440418205e-15  4.8906226864691975e-15  5.3114797003602871e-15  2.7629858623514696e-15  7.7092121570918614e-16  7.1429707160657580e-16  8.2125658245260295e-16  4.1587007858763095e-15  8.7948831999591442e-15  7.8047424614855011e-15  3.2805167937209257e-16  9.0222481433538340e-15  8.1329352689270904e-16  8.2267721699675476e-16  1.6931181883805909e-16  2.7633988057858356e-16  8.2923705062326853e-16  2.5359213278873232e-16  4.2124609285566406e-15  3.2611342135384571e-16  1.4131569429631860e-16  8.1207939389632964e-16  2.9758507894787222e-15  1.9905853129416600e-16  7.5226627246281217e-15  8.4724686207020417e-15  7.4146995281567204e-15  2.6148499961313359e-16  3.0744376300922740e-16  1.3817918428818190e-16  4.9081632999050431e-15  6.7493456849617470e-16  1.3800810332827511e-15  1.1344966840194063e-15  1.5045599279891889e-16  8.0525416598776169e-16  3.8271500702887831e-16  4.4389878700520581e-15  9.2517379776744107e-15  5.5582737677538134e-16  8.8691458851843814e-15  2.4073295296355008e-16  7.2629133641531445e-16  1.5701584213526698e-16  1.6540265318563952e-16  7.4967360238176134e-16  8.2569691926630813e-16  1.0982300694830990e-15  2.3973307673236802e-16  9.2372858895931081e-16  1.7985706656365528e-16  3.2273116741968238e-16  3.2217822217184103e-16  2.8782890939998755e-16  2.6812679827007494e-16  2.6680803943418577e-16  5.3481171901676262e-15  2.8783088615358276e-15  8.9069477834117529e-15  3.4461018864620889e-16  7.9641517091378109e-16  8.3718667427262448e-15  7.8506222517574158e-15  8.2207058998470424e-16  9.5896970185695741e-16  1.2771585320109998e-15  3.7602087771516263e-16  2.9569041400112194e-16  3.0939613314018477e-15  8.2944226455280462e-16  8.1869260194737791e-16  2.5257865701486164e-16  5.3230974648641719e-16  2.5764691974890239e-16  1.1630898508687210e-16  1.5610131897327635e-16  2.1019659731051567e-16  8.1581172087179084e-15  8.2597180223459698e-16  5.4749930651360601e-15  1.8053582498566485e-16  2.8773231923120493e-16  3.3818120064236072e-15  3.4732512444876126e-16  1.1243262851852807e-16  1.2398390760896482e-16  8.1575002300238537e-16  3.0800662033230171e-16  8.2088905151045050e-16  8.1755606606581797e-16  2.1427798692375231e-16  7.5205580633358494e-15  3.0436914576992327e-16  1.4807678090693603e-15  3.0649504255037804e-16  9.2292493210258777e-16  1.9385648779653525e-16  8.1909856142686232e-16  8.2864891104897612e-16  8.0765484941620559e-16  8.0977861492264486e-16  2.9315904415730865e-16  3.1966570168624556e-16  2.8431312324414076e-15  1.4031257899163826e-16  8.2827125919960350e-16  8.2577054272709137e-16  2.2785169953707698e-16  2.1300588655637875e-16  1.8407300199157605e-15  8.2958432762130726e-16  1.1588333082121173e-15  1.6444044839078980e-16  2.7844248487791795e-16  1.1532270838110268e-16  1.7561925846140948e-16  1.7384081135843175e-16  1.9178528407145936e-16  2.6932600189036500e-16  6.9864747210855498e-16  1.8324771681717705e-16  1.1638326363330046e-16  8.4756007682929892e-16  1.5963267056148736e-16  6.7563901301573207e-16  6.8996397062973430e-16  2.3943062452830887e-16  3.7387954123458159e-15  2.5427632680813792e-15  3.9706995450708156e-16  2.0250080456956062e-15  4.0984708651218021e-15  2.9648006265301040e-16  3.0296553102510269e-16  1.3463528998315626e-16  8.2631509204192689e-16  8.9110429598582985e-16  3.1208196797793806e-16  2.0850250525470232e-15  8.2488482585602435e-16  1.4059189826973427e-16  5.7364373431259243e-16  4.0917414733065257e-15  1.0323138385560078e-15  1.4057552898907724e-15  1.2132732287758640e-16  2.4294457089368313e-15  5.9624245636344348e-16  1.2436360504279036e-16  8.1527979291369980e-16  2.4084696916727149e-16  2.2388646791597786e-16  2.1189212154463780e-15  4.0402277505446976e-15  7.8298924490678365e-15  5.7921021550605009e-15  1.0867893409908580e-15  6.0209449619261458e-16  7.8247427698199714e-16  6.6181102300615751e-15  1.5645172542005884e-16  1.2555776869871967e-16  8.2515452493838255e-16  9.2736203314320817e-15  3.3771173508559200e-16  2.4206732371039311e-16  3.6302010804993965e-16  7.0292752431876747e-15  6.3264176027672919e-16  9.1529262336086798e-16  8.5842890215193200e-15  7.2884661283067937e-16  1.0605045146276140e-15  2.9706482314858739e-16  1.6306144653379978e-16  2.0190905138527962e-16  3.4014659175957110e-16  7.4561505505061300e-16  3.2750582988214904e-16  3.3600650501404074e-16  3.3022948141857172e-16  4.9328900802652004e-16  3.3399769942577269e-16  1.3033687748229824e-16  1.1889181036909768e-16  9.2323094151901664e-15  5.1443478858376066e-15  6.5474455358575308e-16  7.6239564847183090e-16  2.1378200687928480e-15  6.5538223398840272e-15  1.5003188886118634e-16  3.0296721097171934e-16  1.6752298951897706e-15  1.4375377523813522e-16  2.6519176617876542e-15  3.0983909222307942e-15  8.2259102324728355e-15  5.5071005884201877e-16  2.2266853330411633e-15  2.5821168131680148e-16  8.9634218573323190e-16  8.2829651196921672e-16  3.5951885298014446e-16  3.6186238827178778e-16  4.2868379968279339e-15  2.6175129356962052e-16  5.2470331754986396e-15  3.5023392765536922e-16  8.2780859954537255e-16  1.1957045018508812e-16  1.8715876608676576e-15  4.5924812081171955e-15  2.3000921111889162e-16  4.6178655669202202e-16  1.0501904678175872e-15  2.9817693156210464e-16  4.8376712499980406e-15  3.5163669766761291e-16  1.4258626936006257e-16  1.6971450150351409e-16  3.0449450216613397e-16  1.6986610578187073e-16  6.0444077520540727e-15  8.0521987282449805e-16  8.3035254972474563e-16  8.3062153846522939e-16  8.7577745263030470e-16  7.9406219575988641e-15  2.0976421324137107e-16  5.4295246341286565e-15  8.9576005124315645e-15  6.6208130158913969e-15  3.3229131244230521e-16  1.4691281131373041e-16  1.3541065006224127e-16  8.2853156912474580e-16  7.1769204776639661e-16  8.7293029546910946e-16  1.4115265813750017e-16  2.8102051620720418e-16  7.9422402556902062e-15  8.0425157833308900e-16  7.3954507803439502e-15  8.0350816659697184e-16  7.9520803688838758e-16  8.1708291615727002e-16  8.0082090093346749e-16  8.0352645509207576e-16  1.3778839026776627e-16  1.9662857250386612e-16  2.1860154697493340e-16  1.2259764159619961e-16  1.2730416481015829e-16  1.2931035819212783e-16  6.5483692189440792e-16  7.0009927316751537e-16  7.3704329905346694e-16  8.0877301668432243e-16  4.9897021899121016e-16  3.1468922818348505e-16  1.7966073273336183e-16  8.2821482662047287e-16  7.9356924713819539e-16  3.5588197018075364e-16  8.1723400788475412e-16  1.1303728574078082e-16  3.4140017160811529e-16  2.3922305478795553e-16  3.4996946906400144e-16  3.3944552860426602e-16  2.7534520955777450e-15  2.5630796940781725e-15  4.6379887252364142e-15  6.4214231107253367e-15  7.7615420900366614e-16  8.8843470294627445e-16  4.3067898699305374e-16  1.7369546679866708e-16  1.0161342787242601e-15  1.1221459278623533e-16  1.9834083427532455e-16  9.1074836637550753e-16  2.2429371804514622e-15  8.1134465804323411e-16  2.5402079160603417e-16  8.2346086953446627e-16  1.3573900818127280e-15  7.1860720992061606e-15  3.0446510351624628e-15  4.2702960108238351e-16  3.4587370012699735e-16  7.4330939124332126e-15  4.4161872783197959e-16  8.2947610715070317e-16  3.6522410316616268e-15  2.9789812899175787e-16  8.3287512272662113e-16  7.6796148149289933e-16  7.8734255450034312e-16  7.9587361032855366e-16  7.3876206602894443e-16  5.0900617724709046e-16  1.1775697483204995e-15  1.5509614319199865e-16  8.8669247967823429e-15  8.6190749249032580e-16  1.6667489921296209e-16  7.6457976718392435e-15  1.3799582645783170e-16  7.8000669558106176e-16  8.5867328511863502e-16  7.9433461861682066e-15  7.0852613529528257e-16  7.7558378231571395e-15  8.3163413825148824e-16  2.5644920969733981e-16  7.0314625802590189e-15  8.8812132222518271e-15  1.8644670179169989e-16  1.4472016439900325e-16  4.6203397415894156e-15  1.6372471899206787e-16  1.5089486093711475e-16  1.6127550495915656e-15  2.3991786266878084e-16  5.2522438772129026e-16  4.1063307565411653e-16  5.2064879020116960e-16  2.2472980081662377e-16  8.0332812545969313e-16  8.1139185434804543e-16  4.2679993214250891e-15  2.7147082308239890e-16  2.1716272495940563e-16  2.2851074877837429e-16  1.9483415546609099e-16  8.2961261854452412e-16  7.5472233073730879e-16  1.1091445331340257e-15  8.1459259006000798e-16  2.7813994482863903e-16  8.2279416682050287e-16  8.2552202185982190e-16  1.0247954056811542e-15  2.9859018069537438e-16  2.0855317390865494e-16  1.9772694344522146e-16  8.2960378797850352e-16  1.0316152478092947e-15  7.8950571414973719e-16  7.9518547820533911e-16  8.0846827699070688e-16  1.8557066914589282e-15  1.5382157285567198e-16  8.3280250756945209e-16  8.4658433965626722e-16  8.2662528815218823e-16  8.2734176170633604e-16  8.2353901566085141e-16  2.2391372483446590e-15  3.2204233797442392e-15  2.5067216833145426e-16  1.9210543246117770e-16  1.2713889680239389e-16  1.6897067501928143e-16  1.6601135844309353e-15  9.2455550271220674e-16  7.1024303927299420e-16  1.2190857575488165e-15  1.7337507917324640e-16  2.1345425336813572e-15  2.6451816775057318e-16  4.0006639266350672e-15  4.0988376369768213e-15  1.8739451895162565e-16  7.2885553186618674e-15  8.8001516202344247e-15  6.6664557115538610e-16  1.6487646501618659e-16  8.0401485436224001e-16  7.6468434252255643e-16  9.3879973846863536e-15  2.4802568684724280e-15  7.3344104072094053e-16  8.1421427784991776e-15  9.1780217637594141e-15  8.2074213000223762e-16  1.3476640782199729e-16  2.8519699317164458e-16  5.4138502934974473e-15  7.7045151347605203e-16  7.5190105742618338e-16  8.2238623361813838e-16  8.1011590834509997e-16  1.8224122622873500e-16  8.0391911031349344e-16  1.8448859910160556e-16  1.3418506665374731e-16  8.3449745839086839e-15  8.2937430139741337e-16  2.3089233682038269e-16  6.8509747098457131e-15  1.6343982236156966e-16  5.1632396427481389e-15  8.1977854719260777e-16  8.2470355843658736e-16  8.2812799494768735e-16  8.1849422019408448e-16  4.1751394714829