<?xml version="1.0"?>
<VTKFile type="UnstructuredGrid"  version="0.1"  >
<UnstructuredGrid>
<Piece  NumberOfPoints="6486" NumberOfCells="12696">
<Points>
<DataArray  type="Float64"  NumberOfComponents="3"  format="ascii">0 2.5 0  0 0 0  2.5 0 0  2.5 2.5 0  1.25 0 0  2.5 1.25 0  1.25 2.5 0  0 1.25 0  1.25 1.25 0  0 0.625 0  0.625 0 0  0.625 2.5 0  0 1.875 0  2.5 0.625 0  1.875 0 0  2.5 1.875 0  1.875 2.5 0  1.770833333333333 0.7291666666666666 0  0.7291666666666666 1.770833333333333 0  0.9375 0.625 0  1.875 1.5625 0  0.642361111111111 1.163194444444444 0  1.341594827586207 1.883979885057471 0  0.46875 0.46875 0  2.03125 2.03125 0  0.3626104797979798 1.513178661616162 0  1.381740196078431 0.4564950980392157 0  0.9375 2.172619047619047 0  2.172619047619047 0.9375 0  2.096354166666667 0.4036458333333332 0  0.4036458333333333 2.096354166666667 0  1.684027777777778 1.163194444444444 0  0.3418803418803419 0.8693910256410255 0  1.642742622813391 2.162164207604464 0  1.275619849389031 0.8465650753054845 0  0.9136284722222221 1.434461805555556 0  1.732437511238546 0.3406962303960658 0  0.9714402568595876 1.029779313093998 0  1.52281746031746 1.485615079365079 0  2.1875 1.71875 0  1.06819722569879 0.2997236128493951 0  2.136114211309524 1.303478422619048 0  0.3125 0 0  0 0.3125 0  2.5 2.1875 0  2.1875 2.5 0  0.3200021620376328 1.192323085056694 0  0.6738456129277992 0.8304377375553881 0  1.757891808928991 1.861952730357003 0  1.5625 0 0  0.9375 0 0  0.3125 2.5 0  2.1875 0 0  2.5 0.9375 0  0 0.9375 0  0 1.5625 0  0.9375 2.5 0  2.5 0.3125 0  0 2.1875 0  1.5625 2.5 0  2.5 1.5625 0  0.7448220909826522 0.3003573636608841 0  1.027298850574712 1.871151477832512 0  1.331260495098891 2.197262878816185 0  1.207917681892289 1.582765010956622 0  0.4339993447432606 1.801186844743261 0  0.6337298768939392 1.443093039772727 0  2.049851190476191 0.6826636904761904 0  0.6584821428571428 2.219122023809524 0  1.89575676467455 0.9798457973793544 0  1.437570562095628 1.059380588255917 0  1.502090052505845 0.6987070896496241 0  0.2040860661083546 1.705323965099331 0  0.2083333333333333 0.46875 0  0.5070952039991439 0.2211150679997147 0  0.6916302856529919 0.5813591430410241 0  2.265625 1.953125 0  2.2265625 2.2265625 0  1.886424081252096 2.243391360417365 0  1.40625 0.202164758520858 0  0.2269345238095238 0.2269345238095238 0  1.152730869673694 0.5225850378741401 0  1.885631899587912 1.312095130148776 0  1.614808884009367 0.9049784971014416 0  1.890095442220658 0.5126535558463003 0  2.323168682795699 0.46875 0  2.268811725689575 0.2304742875213018 0  0.6002389442105756 1.967426444210576 0  0.1768313172043011 2.03125 0  0.2311882743104251 2.269525712478698 0  2.03125 0.176831317204301 0  2.280262553344767 0.6954945504579233 0  1.979219539285994 1.809922269642997 0  2.336309523809524 1.09375 0  1.09375 2.336309523809524 0  0.9314042474388009 1.662973812215543 0  0.1634067999087722 1.40625 0  2.337090640094896 1.40625 0  1.141616997467638 2.069311773587991 0  0.46875 2.338939559681489 0  1.542440307908715 1.734944797244472 0  1.556713687786879 1.956977865354753 0  0.8264238995344066 1.975424467820646 0  1.466326331454725 1.275271369760862 0  1.655675324257095 0.5444159974393489 0  0.3385416666666666 0.6479255698005697 0  0 0.78125 0  0.5236073939200119 0.984090461540625 0  2.091665741047893 1.519793517904215 0  1.71875 2.5 0  0.5356538886262603 1.623137930505009 0  0 1.09375 0  0.1932884281517095 1.015625 0  0.8569313582417669 1.2198915584249 0  0.8876981284879677 0.8329884081524883 0  1.115618488474214 0.7219586973356271 0  1.186950366204949 1.043465130075318 0  2.057459118787237 1.110823087309335 0  1.830651283878689 2.049810069572418 0  1.689107969301489 1.367247437031697 0  0.4921048768039656 1.298643370653124 0  0.8213975694444444 2.336309523809524 0  2.03125 2.5 0  1.049729400480002 1.283723261332814 0  1.308101375801673 0.6489479469700392 0  2.5 2.34375 0  0.4968777175037714 0.7562964879736076 0  1.40625 2.5 0  1.501347663534097 2.307027627307738 0  1.602813712048603 0.1926218191360736 0  0.8393082906308107 0.463778306132633 0  1.682663349152719 1.598471865581041 0  0.7774174680851571 1.560004941327907 0  1.554204170364662 0.3898593897892066 0  1.842184459051087 0.186443880058197 0  1.358107417651776 1.696381759610015 0  1.18859291992392 1.77598670078022 0  0.1875331222687418 0.7609599743339348 0  1.339536743965101 1.422080365801479 0  0.7788179348750389 0.9955343414928611 0  0.9062978492805438 0.1919636509126373 0  1.256007360640958 0.3160320559396114 0  1.09375 0 0  1.174986727221844 0.1594990293443933 0  2.34375 1.796875 0  2.318026474511116 1.589177949022232 0  2.34375 2.5 0  1.672742954892153 2.332882724550692 0  0.2683637361947215 1.874801596909639 0  2.174770749820102 0.5581009131310781 0  1.443279522965991 0.8870068372898454 0  0.3385416666666667 0.3571428571428572 0  0.78125 0 0  2.060421048269335 2.314363248763811 0  1.088078737088509 0.8967352118723447 0  1.087825368444708 1.454931510884769 0  2.018308232129541 0.8548495425854904 0  1.943987311736842 0.3246298523011434 0  1.71875 0 0  1.85337849796276 1.144833312386208 0  2.3486328125 2.1044921875 0  1.407588788651747 2.042968789119587 0  2.336309523809524 0.865366648092144 0  2.34375 0 0  2.5 0.15625 0  0.15625 2.5 0  0 2.34375 0  0.1638044648294291 1.242263417405867 0  0.356216654757926 1.032569427322806 0  0.3188217956111817 1.355736727000647 0  0.5924956460852111 0.36112522004736 0  0.6594216488965849 0.1603472116132387 0  1.841804599497131 1.72214349266521 0  0.15625 0 0  0 0.15625 0  2.115898634821499 1.894570904464496 0  0.7821877980253907 0.7129993435924866 0  1.003820447087786 0.4516053462784233 0  0.477562948779147 1.138333049293613 0  0.719493678605015 1.305655360135975 0  0.9772457618587566 2.020350128938537 0  0.8764738248887107 1.826219722709673 0  1.254787875123819 2.339010653832026 0  2.343597354852534 1.249982759769001 0  0.78125 2.5 0  0.46875 2.5 0  2.5 1.40625 0  1.09375 2.5 0  2.5 0.78125 0  2.5 1.09375 0  2.03125 0 0  2.5 0.46875 0  1.40625 0 0  0.46875 0 0  0 0.46875 0  0 1.40625 0  0 1.71875 0  0 2.03125 0  2.5 1.71875 0  2.5 2.03125 0  2.005424054645407 1.653223486966518 0  0.1538730573856537 1.559850281736677 0  2.33984375 2.33984375 0  1.166539506212474 1.922878979538754 0  0.3914885633949916 1.65887232812171 0  0.5795503163042564 1.766243562569382 0  0.399533125920212 1.946786875081388 0  0.7866324979014098 2.127719094551316 0  0.3654683023546834 0.1495701132219454 0  0.1527388747131078 0.6116379440619215 0  2.013737577140188 1.391056634712135 0  1.17635437372994 2.213329084238133 0  1.737118141866284 1.010577140843115 0  2.200707118087222 1.164723314085963 0  1.697018908736685 1.993548551451517 0  0.5387621649009668 0.6070503962352419 0  2.032805785855952 0.5330427622570983 0  1.082699501358059 1.667818725183932 0  1.503819781540653 0.5468420196858188 0  2.015409142866072 2.175941657590429 0  1.752057611265444 0.869642097111018 0  0.612251684107783 2.356045720700959 0  1.902817102342857 0.6607642211999982 0  2.159616561739693 0.7867739969338844 0  0.5120038350106624 2.197302352398502 0  1.888200216011548 1.919501662489862 0  1.495909909726654 2.16028358757309 0  0.489139876703609 1.443203008943564 0  0.8819175670410521 0.3301172743913011 0  1.882591144370812 0.8155965192707721 0  1.133979796994841 1.172526771862882 0  2.206217447916667 2.084147135416667 0  2.20361328125 2.36279296875 0  1.395746985657004 1.556054166359645 0  1.704383111516207 1.734750450338683 0  0.9575737847222222 2.36274223823052 0  1.035150984253136 0.1302833343179028 0  1.383966125325753 0.7651479963479179 0  1.64003252158672 0.6824316405528895 0  2.22550785055421 1.487078576356817 0  1.760964431499756 1.48495222505201 0  1.276460980673788 2.004207003584658 0  0.1341477688427096 1.828777507920502 0  1.542261434180652 1.155296658359034 0  1.334627911613854 0.9696897472490321 0  1.30794231473696 1.119420615785191 0  0.7028260459857245 0.4438906910721139 0  1.625757433094055 1.84268057552138 0  0.9818707849053143 1.165603626132254 0  2.0086489901463 1.243134585689553 0  1.934584460420609 2.374094051915812 0  1.798434376789567 2.38671361912528 0  1.206314791201715 1.382064292497919 0  0.6333752893366955 0.7023738550008095 0  0.7796219811205605 1.42573253164258 0  1.564399711917382 1.026040828857629 0  0.3385416666666666 0.4889012896825397 0  0.1041666666666667 0.390625 0  0.989112246382566 1.543537365516289 0  2.025724425454636 0.9846960595520872 0  0.6602885475034063 2.086117390485779 0  1.607130551925032 1.267198646640915 0  0.1317864544877056 0.8896173683400176 0  1.755387840017567 2.230364320056445 0  1.301540702984401 0.1216289692748247 0  1.433170657577442 0.3331052752740999 0  1.500459610550388 0.113513924782439 0  0.6494291520606965 1.029586599619295 0  1.010146149868299 0.794897284196169 0  0.3700844198238017 2.235390157870766 0  0.3360891767780704 2.36656279435396 0  1.876856241037701 1.437150669863757 0  1.778674102957329 1.245979347269706 0  0.5472829890977179 0.1005517127039925 0  0.4669074189005698 0.3416784232954367 0  1.472765289289269 1.850899166481903 0  1.555853593327178 1.608452097912802 0  0.6708955559113426 1.646561631116984 0  0.8164699620322933 0.5924479455478063 0  0.3167738989468366 1.758696809749795 0  0.2788007305565096 1.605499483471246 0  0.7821720982350511 0.181524936294752 0  1.376812251214195 2.313340247908297 0  1.785652202614777 0.5962261755537186 0  1.761467296310972 0.4679567244718574 0  2.2265625 1.8359375 0  2.3828125 1.9140625 0  0.5279531607054191 2.071552361614785 0  2.397573269551114 0.234375 0  2.383578172599618 0.3589298466020009 0  0.1024267304488855 2.265625 0  0.1164218274003825 2.141070153397999 0  0.2696857594953064 2.135405441512016 0  2.164961300137334 0.1375322943529536 0  2.137757548369486 0.2724194778647587 0  2.238873711826398 0.3626419179496562 0  0.1001414910226386 0.234375 0  0.2176339285714286 0.3478422619047619 0  0.2503620791333544 0.1061694061057066 0  2.336445461915368 0.1250451055247424 0  0.2154004640409726 2.3918124
[...]
<PointData  Scalars="f_124-2"> 
<DataArray  type="Float64"  Name="f_124-2"  format="ascii">-9.6531199183030899e-12  -1.1116177630576978e-12  -2.9327929858294221e-13  -4.1539083843858470e-12  -8.9188326080788927e-13  -2.8031121265819934e-13  -9.8828189788745902e-12  -1.0654098402159674e-11  -6.2353340767383360e-12  -5.7875211770547480e-12  -1.1097543048405877e-12  -9.8044466626791803e-12  -1.1980373126340734e-11  -2.6104905962324041e-13  -5.7560304910644545e-13  -1.1251051614361347e-12  -8.8103633399477162e-12  -6.4183634093492043e-13  -1.2033107005658096e-11  -1.9406881499085069e-12  -3.0354381154335067e-12  -1.0108110756407148e-11  -1.1140835556189060e-11  -3.2544582059855076e-12  -5.8678734072437128e-12  -1.1652294383275299e-11  -8.4622122653500347e-13  -1.1425955002159579e-11  -4.1745660852165160e-13  -4.5017841879964392e-13  -1.1596370689549787e-11  -1.5350478386671623e-12  -8.1853897494993190e-12  -1.0200354938576460e-11  -1.7070663490694794e-12  -1.0982779952023992e-11  -6.3906058692875559e-13  -6.3275903937780645e-12  -6.0120523555000323e-12  -1.8328799613337833e-12  -9.8866280279715239e-13  -6.5782969537997996e-13  -1.1300027277855428e-12  -2.3882407168467185e-12  -2.6713473425017564e-12  -6.7608506044382563e-12  -1.0444133005753374e-11  -6.5459397916809886e-12  -7.3829546766862804e-12  -7.3035970891334029e-13  -1.0260997497231602e-12  -9.6107563665379400e-12  -4.1830612022389029e-13  -2.5668073062364433e-13  -8.9112781624506799e-12  -1.1748795528226749e-11  -9.8195704441878871e-12  -2.7507154939713760e-13  -1.1243119987584741e-11  -9.6539319524407371e-12  -4.4961109316524042e-13  -1.1626775252189846e-12  -1.1925121341923190e-11  -1.1144009851724677e-11  -1.0367553909123341e-11  -1.2030049853006495e-11  -1.1460669963778557e-11  -4.7113372230168581e-13  -1.1187721769897560e-11  -6.3198258287310908e-13  -2.1808262259896246e-12  -8.3819301825749655e-13  -1.1976307067187124e-11  -4.0005549754097496e-12  -1.2624099249383615e-12  -3.0228417164877003e-12  -2.7631242052824445e-12  -5.2468202619139520e-12  -8.6620661548679444e-12  -8.1520122743944761e-13  -1.6669916503663240e-12  -1.0285437238399734e-12  -1.3531437458881960e-12  -9.3597544344898079e-13  -5.5500449483807979e-13  -3.3385798361145545e-13  -3.6987900045192245e-13  -1.1916535372260659e-11  -1.1742073363817648e-11  -1.0887958335203763e-11  -4.8987253965572594e-13  -3.5192503179870555e-13  -4.3221593955053311e-12  -3.3603837233358428e-13  -1.0703096901188659e-11  -1.1823136021568334e-11  -1.1301410538720842e-11  -4.8039746081012595e-13  -1.1645142076783467e-11  -1.0592257020496408e-11  -8.6014938721594910e-12  -1.0100761344390548e-11  -1.1922860352169618e-11  -3.9798887108291545e-12  -6.9788034948702822e-13  -5.9653154430735612e-12  -7.6417618065483848e-12  -9.0054098295642150e-12  -1.3393396148986263e-12  -9.3803557265356642e-12  -1.1897868334119041e-11  -9.8857820399470081e-12  -9.4376104160814514e-12  -9.6770581613516230e-12  -4.4620997996745541e-12  -1.6929370313561265e-12  -4.2310174458868464e-12  -5.5610557460957197e-13  -8.1123758372376111e-12  -2.8596305682724956e-12  -1.0951280901071576e-11  -1.0676132179590712e-11  -7.9297089962626190e-12  -8.8603431683682386e-12  -9.9499275631749152e-13  -3.5590006246650315e-12  -6.7874520472824484e-12  -9.8053326507016092e-12  -1.0530777612128403e-11  -7.1005680732157743e-13  -1.4215930296964877e-12  -5.3757772214588482e-12  -1.1754916086190143e-11  -7.4538108557880802e-13  -5.7895928914398722e-13  -1.0043357417585391e-11  -1.1488554527014849e-11  -7.2733893077488264e-12  -7.3389553257806252e-12  -7.7820227126378972e-12  -1.0412483580142081e-12  -9.0043511028967279e-13  -9.6308439912702849e-13  -9.3727328297245578e-13  -1.3894283010148667e-12  -8.1747934608255986e-13  -5.3508811640760309e-12  -9.9919564724136196e-12  -1.2002838859709352e-11  -4.0270779519536680e-13  -1.2722481125565686e-12  -2.6012478014630725e-12  -1.0727392163198487e-12  -7.4147200260235893e-12  -3.3781025542084415e-12  -1.0203897113942333e-11  -5.0102234435799780e-13  -5.2791531902213238e-13  -6.5460219837261354e-13  -9.1598228253123371e-13  -3.1827363863206579e-12  -1.1144125620384433e-11  -3.2207631672052264e-13  -3.5357873146945471e-13  -2.8726789476864671e-13  -9.6422465519351273e-12  -1.0399893351579497e-11  -1.0675560119069492e-11  -9.4448373405202978e-12  -1.1157806432009913e-11  -1.6420712775743454e-12  -1.1154076278339404e-12  -4.9400060105919167e-12  -1.1100229619493817e-12  -1.3377281411126355e-12  -3.6817171851884011e-12  -3.8566305877046099e-12  -1.1141612448663274e-12  -1.0083243025414417e-11  -1.0816359487959286e-11  -1.1829397928084889e-11  -1.2014849510035110e-11  -1.0692938460210742e-11  -3.7060457728945143e-13  -9.8089086226680152e-12  -9.6532069840616369e-12  -3.2693836651351263e-13  -9.8554505442392180e-12  -2.6153166333400419e-13  -2.6335676965719858e-13  -4.9871267292967217e-13  -2.6524682310039860e-13  -8.0547572434567083e-13  -1.1317912328279931e-12  -3.9612430018886911e-12  -1.1276817094343663e-11  -1.1989527862592441e-11  -1.1759797422352659e-11  -6.9651325936731242e-13  -1.8133631264428902e-12  -2.6168435169981928e-12  -1.1748045243566849e-11  -4.8130733667539416e-12  -1.1755900988702662e-11  -1.1920400170055512e-11  -1.2034846918362929e-11  -1.1934495030892370e-11  -1.1570547116978082e-11  -1.2426262175149080e-12  -5.6729128300250515e-12  -1.1738825605481035e-12  -1.1258660878938152e-11  -8.9079168083272257e-13  -4.4751579446952287e-13  -9.0626595028159209e-12  -4.6148591967425203e-12  -4.8161235252507297e-13  -1.1498632216903922e-11  -7.8311503568783162e-13  -7.1115512041150642e-12  -7.0539877843369256e-13  -1.0520459305735058e-11  -5.5368159757362545e-13  -4.1477232535261501e-13  -1.1272508829322620e-11  -6.4458311769788294e-12  -1.0840170941726958e-11  -1.1476569681330777e-11  -1.0939492894279391e-12  -5.7352561689351638e-13  -6.5694891247432788e-12  -4.4137658767580384e-12  -6.1914228299783379e-12  -8.2806033639120539e-12  -6.7343975251116559e-12  -1.0540070283092795e-11  -9.9529519434063368e-13  -1.0811861909846302e-12  -7.1725478930964200e-13  -8.1656373920660814e-13  -3.3719545568537203e-12  -1.1540492870992543e-11  -1.2019800269825801e-11  -2.2105571875914424e-12  -2.1427440532267578e-12  -3.8359864367627358e-12  -1.7844457667792157e-12  -8.6579141460746340e-12  -8.1283859191234439e-12  -8.1087813321618641e-13  -8.5530183006822912e-12  -9.3461561929010532e-12  -8.4406100683528634e-12  -5.1605490206638280e-12  -1.1305209720094425e-11  -1.4003675750291293e-12  -4.0813078402982959e-12  -3.1144604977863095e-12  -1.1318945128137441e-11  -5.1658264549167676e-13  -1.1655052687174258e-11  -2.6527325328792330e-12  -8.4976892321917678e-12  -9.6448184527598344e-12  -8.6837026495624913e-13  -8.0962362243403607e-13  -7.6196487690002377e-13  -9.0533353950222388e-12  -2.9360020267047154e-12  -1.1094095110139017e-11  -1.0367782218532195e-11  -2.0274711560628465e-12  -1.5166149744083213e-12  -1.1292961288627154e-12  -1.9660863359883796e-12  -1.0150667524413212e-11  -7.0047331850579423e-12  -1.1938746634406096e-11  -2.3897435124391153e-12  -1.2014801620575599e-11  -1.1832615732639741e-11  -1.0828426144385009e-12  -1.0692609849828988e-11  -6.2229003724380190e-13  -6.2740863874485348e-13  -2.3050635110469255e-12  -1.7210797291961796e-12  -1.1688628625432985e-11  -3.1019486134045403e-13  -3.1335774011885382e-13  -1.0901440965630853e-11  -1.1456887371612783e-11  -1.1469086069123136e-11  -4.2400005715577912e-13  -4.3491926505326139e-13  -3.8502842276791342e-13  -1.6943890048260658e-12  -2.7143087298674559e-12  -1.1965280073091503e-12  -3.4408934834552718e-13  -1.0179588212868711e-11  -1.1246932139562685e-11  -1.2082565692821190e-12  -6.4871073342398028e-13  -1.3673598547814376e-12  -9.5890000915863369e-13  -9.2404359999241343e-13  -1.1852954209631264e-11  -4.4638382616853219e-12  -9.3865606227756809e-12  -1.1914781702058261e-11  -5.4163021444446595e-13  -3.1085988302609338e-13  -3.0137015697128306e-13  -3.7105304954144332e-12  -2.6628676970052764e-12  -1.2005465601782853e-11  -1.1998181319315544e-11  -9.0512809410582369e-13  -1.3037536192086477e-12  -4.3137317375911088e-12  -5.8180871314766635e-13  -8.1187738146277940e-12  -1.1953642982323502e-11  -1.1923676031511153e-11  -4.0843024935472420e-13  -1.0542890792879290e-12  -4.0328776506167462e-13  -1.1432590426307845e-11  -1.0179330151615424e-11  -3.0266834748995034e-13  -6.7291097629389333e-12  -1.0789368751232205e-11  -2.7479100041068287e-12  -5.1938330893990468e-12  -5.0769414047482491e-13  -1.0252838800378370e-11  -1.1485539698753311e-11  -1.0986576608135708e-11  -4.4878022216122172e-13  -5.1061540578673804e-13  -7.9846108381486428e-12  -6.9135842771240974e-13  -7.4702716969165292e-13  -7.9018874201391649e-12  -6.1062003100613873e-13  -6.8067401684803153e-13  -1.0156370809267960e-11  -3.3754402647048117e-12  -1.0283324696823545e-11  -1.0038879158243206e-11  -7.1664177747359303e-12  -4.8185873943334869e-12  -5.2390684479108226e-12  -6.8871561714674254e-13  -1.1891124503174207e-11  -1.0328941103418328e-11  -3.4083427559550256e-13  -2.9972228726854156e-13  -1.0181681681236290e-11  -1.0120665971751690e-11  -4.4439203723166763e-12  -2.0678445420633151e-12  -8.7021741679000496e-13  -8.5897469338293821e-13  -7.2954397566589761e-12  -7.5321296183085185e-13  -9.3088136417230190e-12  -1.1732893814793916e-11  -1.1963008654983590e-11  -5.7722472085869706e-12  -1.1515436450257853e-11  -1.6356362268455182e-12  -5.8528263852096546e-12  -8.6948919091293091e-12  -6.2940584139303728e-12  -2.8063808173864080e-12  -1.0044207558323934e-11  -8.1513029396559480e-12  -3.1369866107568401e-12  -5.3661334761517228e-12  -4.7065017225178418e-12  -5.1745090832962980e-13  -1.0703871737172159e-11  -1.1779014325377353e-11  -1.0961460994364853e-11  -1.1844142959075726e-11  -1.1591398041109199e-11  -3.5753402608130666e-13  -1.1551220210693715e-11  -9.0814335713747485e-13  -1.2252490250766080e-12  -1.1185417200942777e-11  -8.5988774293551160e-12  -6.1983109072158699e-12  -3.9934680637010538e-12  -5.9475931163159109e-12  -6.9294865488766415e-13  -1.2061933845976889e-12  -1.0138432075048424e-11  -4.4288734308542079e-12  -9.2753413450152383e-12  -6.3334605782243336e-13  -4.6759699132109331e-13  -9.0046099372951632e-12  -5.8112746900933710e-13  -1.0097805747374703e-11  -1.1775379891445195e-11  -7.4112594492871207e-12  -3.1691072894275949e-13  -1.1434089177746850e-12  -1.3721263856472252e-12  -2.0763967899491413e-12  -4.0101084506310011e-13  -1.1991666419906385e-11  -1.1752307009157664e-11  -2.0730969607522796e-12  -5.8197127727610132e-12  -9.7347920034415046e-12  -9.7058357520763556e-12  -7.6359355893404176e-12  -1.0908818360098391e-11  -5.5752444383047289e-12  -1.0509353930168942e-11  -1.1213220695250958e-11  -1.0611549076161637e-11  -1.2029686618124108e-11  -5.1015472811716893e-12  -7.8494320455763003e-12  -6.8769079065939139e-12  -1.0910085835436042e-12  -9.6922229323154647e-12  -1.0186111300647091e-11  -1.0845365990770263e-11  -4.8332006501719597e-13  -8.9293878192410427e-13  -1.1860460227887557e-11  -8.1483773680483103e-13  -1.0771986210308691e-11  -1.0853422230290709e-12  -3.5834647940103385e-13  -1.1996317497493422e-11  -4.7942838501210752e-12  -5.9578932537740201e-13  -5.6943250090328389e-12  -7.3727261144621702e-12  -7.0488510980529170e-12  -9.0627029314313580e-13  -1.0273624234841872e-12  -3.8599318022734422e-13  -1.1131127785857704e-11  -9.8995644235733243e-12  -1.0874211091937276e-11  -2.4670217049613900e-12  -3.7565638132797184e-13  -9.8083284044236948e-12  -2.0606716174134129e-12  -6.8723673931219482e-12  -9.1429757849847791e-12  -7.7230086368144925e-12  -9.8062181123300729e-12  -7.4569031840125331e-13  -1.0829578070617083e-11  -4.5489549225381630e-13  -4.7232761037621025e-13  -1.1235078210158583e-11  -1.0989868031941494e-11  -8.8993018633194049e-12  -7.3686485971094007e-13  -6.2432542983424485e-12  -5.3102667055962663e-13  -1.3009253337189957e-12  -1.6116632372802063e-12  -9.4295750266197810e-13  -8.5930742742561024e-13  -8.5363083672176456e-13  -1.1015136045977320e-11  -1.1487147399860339e-11  -9.8612021439077595e-12  -1.1658640307303904e-12  -9.6257192501992543e-12  -8.0988884476583611e-12  -6.3490830773603421e-12  -1.0891671439023450e-11  -1.0412654038433511e-11  -9.5454160912907645e-12  -2.0222524931007369e-12  -9.7499058395790377e-13  -1.0237034699779987e-11  -1.1498803040793599e-11  -1.1651601394371854e-11  -7.9479055634095150e-13  -1.9809090417915129e-12  -1.2137896783349766e-12  -2.5858034877703704e-13  -6.1664622882520541e-13  -9.6062351056659498e-13  -8.8957810310135462e-12  -1.1963478241947067e-11  -5.2865944200600690e-12  -5.0607874182332801e-13  -1.5389494780413734e-12  -5.0257962332313390e-12  -1.1336162795049537e-12  -2.6113226576111187e-13  -2.9350276875310349e-13  -1.0256397897329960e-11  -1.0246851751807123e-12  -1.2024126541076159e-11  -1.2023293351595659e-11  -7.0402581136866541e-13  -7.9559285533483265e-12  -1.0393113726252183e-12  -1.1314524138546394e-11  -1.3318320417031884e-12  -9.4970782737502500e-12  -6.9861109980374849e-13  -1.2018585938799673e-11  -1.1877042566793174e-11  -1.0054214871039922e-11  -1.0163464650829312e-11  -9.6138346729702663e-13  -1.0837937913937218e-12  -4.6783573054858266e-12  -3.4231545208386193e-13  -1.1274110765641354e-11  -1.2013803073874147e-11  -1.0482930291401174e-12  -7.7971215291103906e-13  -3.5429360564920765e-12  -1.1766301774429150e-11  -2.7426456435809158e-12  -4.4108085278895350e-13  -9.0964077648876758e-13  -2.6184714180031450e-13  -4.6860962640498277e-13  -4.6736566503956593e-13  -5.4802424774602689e-13  -1.2076754075154021e-12  -2.0143199881385481e-12  -9.1128152430581695e-13  -2.9159093621120258e-13  -1.1476670112024984e-11  -4.3754259610246284e-13  -9.9655463255064082e-12  -9.9799555977776138e-12  -1.0446390222970467e-12  -1.0193691535615429e-11  -9.6076100789194052e-12  -1.9830220263629046e-12  -2.8788212243845925e-12  -4.2509274921872562e-12  -1.5666011964851968e-12  -1.6873616114191404e-12  -3.4700123531888880e-13  -1.1275993035778415e-11  -1.1971456400360815e-11  -1.1415429372681403e-12  -3.6738290745417377e-12  -1.0868316146405796e-11  -3.8307932285358958e-13  -2.1571101300246848e-12  -3.3588778109478463e-12  -2.8464110874609533e-12  -1.1808816328244332e-11  -3.1011824183966787e-13  -4.1550694131433923e-12  -8.3636037895465197e-12  -2.8945554926822891e-13  -1.0572540711500121e-11  -7.5831656656513719e-13  -6.7128595305839302e-13  -1.1087782791325661e-11  -3.8343584758511844e-12  -7.3821115975892633e-12  -9.3290234707188388e-12  -2.3086346530392917e-12  -7.8339511482059842e-12  -1.1698508036379011e-11  -1.0742552458058906e-11  -4.3610465395175262e-13  -2.8385101119183030e-13  -1.2023205350709871e-11  -8.6341618028376773e-12  -1.1489172496648141e-12  -7.9100861305234802e-13  -1.4178966239836726e-12  -6.9570121116613145e-12  -9.1863612353048932e-12  -1.1147026891750572e-11  -7.8937918208492548e-12  -1.0866420900876458e-11  -3.2228105193812036e-12  -1.0335531753695048e-12  -6.1772311531234835e-13  -6.0424138062153968e-13  -1.5349783979582618e-12  -1.1150236766283008e-11  -1.3968288489157609e-12  -1.1128479781739026e-12  -1.1435556237684183e-12  -2.3942421910438552e-12  -1.4661386030665359e-12  -2.9144238791991531e-13  -2.5980296042337247e-13  -8.5876122603342736e-12  -1.0788259563067902e-11  -2.6569571363273410e-12  -1.1431242780199152e-11  -2.3819516922381044e-12  -6.3757513972923589e-12  -3.7190046439663722e-13  -9.9874522688423043e-13  -3.0771706143659182e-12  -3.7005335246687916e-13  -3.4485031272644068e-12  -1.1291498922902878e-11  -6.8284985837090509e-12  -2.5452898245516106e-12  -3.6528092746844238e-12  -9.6593211601304870e-13  -1.0933402225750107e-11  -1.0689518381713270e-11  -1.1112489891597368e-12  -1.1229551618147919e-12  -4.7247293936715302e-12  -8.4772428561504945e-13  -4.6665094019639834e-12  -1.4336469720473626e-12  -1.1498059439546510e-11  -2.8665852981806097e-13  -3.8806095545071982e-12  -5.1053587709071185e-12  -8.3655427652745872e-13  -1.9184292176736301e-12  -1.1801839757571529e-11  -1.0014531579865966e-12  -8.4502459779722631e-12  -1.1504584422828987e-12  -4.0266577082758237e-13  -4.8127678644159657e-13  -1.0112192909457965e-12  -4.7649023640787891e-13  -5.1217334690952405e-12  -1.1958621969321320e-11  -1.1475069685896323e-11  -1.1777690342925400e-11  -1.1979570055765070e-11  -6.8860096779821463e-12  -6.4927524724320434e-13  -5.9214202161173216e-12  -9.0627497586469049e-12  -1.0671678516076890e-11  -1.6791888854839157e-12  -4.1231508400389958e-13  -3.1545196142280249e-13  -1.1517427944357516e-11  -1.0663541024845912e-11  -1.0128968040593151e-11  -5.3147752178304397e-13  -9.2683319238770747e-13  -6.0619433396104575e-12  -9.8237400051804919e-12  -7.3933970112517221e-12  -9.9963667890659235e-12  -9.6719252920392870e-12  -9.8319828085483339e-12  -1.1891286164245313e-11  -9.8241761495534922e-12  -5.6036540280580909e-13  -6.0986754778696592e-13  -6.9379131206042991e-13  -2.6881453045497874e-13  -2.9687256560594212e-13  -3.7724524820911204e-13  -9.4325862827996485e-12  -1.0305666030760547e-11  -1.0967769299750733e-11  -9.8741873889164657e-12  -6.6554258627629038e-12  -1.0502870888747416e-12  -5.3801437413040310e-13  -1.1909797730038311e-11  -9.6153286331268964e-12  -1.1206394547465589e-12  -1.0819557565216045e-11  -2.8034136049550679e-13  -1.1248234022693886e-12  -7.7193767976260275e-13  -1.7766151308446324e-12  -3.1191953732247610e-12  -9.1223987013109036e-12  -3.1151904954373352e-12  -3.9515571324244183e-12  -4.6444628682303052e-12  -1.1559429944586123e-11  -9.7177001125544305e-12  -4.9134990514846764e-12  -8.7411960478235247e-13  -2.2102921769341061e-12  -2.6978317289284413e-13  -5.5987418292958913e-13  -1.1245800326060213e-11  -1.1571684406945928e-11  -1.0139586188099980e-11  -8.2044629808829058e-13  -1.0256662873749796e-11  -3.4079991434875738e-12  -5.7424553353311214e-12  -4.0101680893697890e-12  -1.7045698430036791e-12  -1.1363028566279447e-12  -6.6206044679619641e-12  -5.4071175371891306e-12  -1.1794421197591066e-11  -1.0381924553043976e-11  -1.1445063909519581e-12  -1.1675639050809101e-11  -1.1520809689797197e-11  -1.1731735286632874e-11  -1.1865458816130918e-11  -1.1033707906881270e-11  -6.4788516052480128e-12  -4.8927363789333116e-12  -3.9191891496560547e-13  -9.6420693355923660e-12  -1.1912623761473116e-11  -5.2282549276240151e-13  -6.3535352614476026e-12  -3.9274562101171280e-13  -1.1686600338376604e-11  -1.1728603856083084e-11  -7.3635580923496649e-12  -8.8424133748465968e-12  -7.3751773086911456e-12  -1.1882206029065137e-11  -8.1039134810070235e-13  -8.9261353854406926e-12  -8.6080818398694165e-12  -5.4044801895105129e-13  -3.4899858757211347e-13  -8.3049935679868035e-12  -4.2147834887492218e-13  -3.8274718156065453e-13  -1.1370079416916537e-11  -1.1591805371563061e-12  -2.5620501462210674e-12  -2.0423569088551038e-12  -2.4697490114247394e-12  -1.1466094528342572e-12  -1.1971822455000118e-11  -1.2017291100259463e-11  -1.0537355513765439e-11  -1.4352557471312294e-12  -1.0695019323102046e-12  -1.1842032106760758e-12  -8.5824948341994517e-13  -1.1475562260308289e-11  -1.1277042909570797e-11  -1.1594149908154390e-11  -1.2033912262543595e-11  -1.2886788938349392e-12  -1.2011336401973180e-11  -1.1977284396792009e-11  -1.0444222250019264e-11  -1.6060094182562027e-12  -6.0347635581688087e-13  -5.7072346628533549e-13  -1.1681515985167239e-11  -1.1753905238627826e-11  -1.1810448793078802e-11  -1.1882257731830672e-11  -1.1999372446417859e-11  -3.9772350196396989e-12  -4.1545740775760118e-13  -1.1065411195398077e-11  -1.0983139688723978e-11  -1.1201668132135378e-11  -1.1340985035533388e-11  -1.1022635003694551e-11  -1.0286933779446150e-11  -4.7347491254016859e-12  -7.9326451924074477e-13  -9.4844861863861645e-13  -2.9288669764053575e-13  -6.4748599394465403e-13  -1.1770792801473847e-11  -1.1398843147333054e-11  -1.0538310887427519e-11  -3.2735737932151818e-12  -5.0614820236879545e-13  -4.1518662264177500e-12  -8.5250758038461044e-13  -9.7055099645674268e-12  -7.4277884880629939e-12  -5.5382637064607568e-13  -6.332312