<?xml version="1.0"?>
<VTKFile type="UnstructuredGrid"  version="0.1"  >
<UnstructuredGrid>
<Piece  NumberOfPoints="6486" NumberOfCells="12696">
<Points>
<DataArray  type="Float64"  NumberOfComponents="3"  format="ascii">0 2.5 0  0 0 0  2.5 0 0  2.5 2.5 0  1.25 0 0  2.5 1.25 0  1.25 2.5 0  0 1.25 0  1.25 1.25 0  0 0.625 0  0.625 0 0  0.625 2.5 0  0 1.875 0  2.5 0.625 0  1.875 0 0  2.5 1.875 0  1.875 2.5 0  1.770833333333333 0.7291666666666666 0  0.7291666666666666 1.770833333333333 0  0.9375 0.625 0  1.875 1.5625 0  0.642361111111111 1.163194444444444 0  1.341594827586207 1.883979885057471 0  0.46875 0.46875 0  2.03125 2.03125 0  0.3626104797979798 1.513178661616162 0  1.381740196078431 0.4564950980392157 0  0.9375 2.172619047619047 0  2.172619047619047 0.9375 0  2.096354166666667 0.4036458333333332 0  0.4036458333333333 2.096354166666667 0  1.684027777777778 1.163194444444444 0  0.3418803418803419 0.8693910256410255 0  1.642742622813391 2.162164207604464 0  1.275619849389031 0.8465650753054845 0  0.9136284722222221 1.434461805555556 0  1.732437511238546 0.3406962303960658 0  0.9714402568595876 1.029779313093998 0  1.52281746031746 1.485615079365079 0  2.1875 1.71875 0  1.06819722569879 0.2997236128493951 0  2.136114211309524 1.303478422619048 0  0.3125 0 0  0 0.3125 0  2.5 2.1875 0  2.1875 2.5 0  0.3200021620376328 1.192323085056694 0  0.6738456129277992 0.8304377375553881 0  1.757891808928991 1.861952730357003 0  1.5625 0 0  0.9375 0 0  0.3125 2.5 0  2.1875 0 0  2.5 0.9375 0  0 0.9375 0  0 1.5625 0  0.9375 2.5 0  2.5 0.3125 0  0 2.1875 0  1.5625 2.5 0  2.5 1.5625 0  0.7448220909826522 0.3003573636608841 0  1.027298850574712 1.871151477832512 0  1.331260495098891 2.197262878816185 0  1.207917681892289 1.582765010956622 0  0.4339993447432606 1.801186844743261 0  0.6337298768939392 1.443093039772727 0  2.049851190476191 0.6826636904761904 0  0.6584821428571428 2.219122023809524 0  1.89575676467455 0.9798457973793544 0  1.437570562095628 1.059380588255917 0  1.502090052505845 0.6987070896496241 0  0.2040860661083546 1.705323965099331 0  0.2083333333333333 0.46875 0  0.5070952039991439 0.2211150679997147 0  0.6916302856529919 0.5813591430410241 0  2.265625 1.953125 0  2.2265625 2.2265625 0  1.886424081252096 2.243391360417365 0  1.40625 0.202164758520858 0  0.2269345238095238 0.2269345238095238 0  1.152730869673694 0.5225850378741401 0  1.885631899587912 1.312095130148776 0  1.614808884009367 0.9049784971014416 0  1.890095442220658 0.5126535558463003 0  2.323168682795699 0.46875 0  2.268811725689575 0.2304742875213018 0  0.6002389442105756 1.967426444210576 0  0.1768313172043011 2.03125 0  0.2311882743104251 2.269525712478698 0  2.03125 0.176831317204301 0  2.280262553344767 0.6954945504579233 0  1.979219539285994 1.809922269642997 0  2.336309523809524 1.09375 0  1.09375 2.336309523809524 0  0.9314042474388009 1.662973812215543 0  0.1634067999087722 1.40625 0  2.337090640094896 1.40625 0  1.141616997467638 2.069311773587991 0  0.46875 2.338939559681489 0  1.542440307908715 1.734944797244472 0  1.556713687786879 1.956977865354753 0  0.8264238995344066 1.975424467820646 0  1.466326331454725 1.275271369760862 0  1.655675324257095 0.5444159974393489 0  0.3385416666666666 0.6479255698005697 0  0 0.78125 0  0.5236073939200119 0.984090461540625 0  2.091665741047893 1.519793517904215 0  1.71875 2.5 0  0.5356538886262603 1.623137930505009 0  0 1.09375 0  0.1932884281517095 1.015625 0  0.8569313582417669 1.2198915584249 0  0.8876981284879677 0.8329884081524883 0  1.115618488474214 0.7219586973356271 0  1.186950366204949 1.043465130075318 0  2.057459118787237 1.110823087309335 0  1.830651283878689 2.049810069572418 0  1.689107969301489 1.367247437031697 0  0.4921048768039656 1.298643370653124 0  0.8213975694444444 2.336309523809524 0  2.03125 2.5 0  1.049729400480002 1.283723261332814 0  1.308101375801673 0.6489479469700392 0  2.5 2.34375 0  0.4968777175037714 0.7562964879736076 0  1.40625 2.5 0  1.501347663534097 2.307027627307738 0  1.602813712048603 0.1926218191360736 0  0.8393082906308107 0.463778306132633 0  1.682663349152719 1.598471865581041 0  0.7774174680851571 1.560004941327907 0  1.554204170364662 0.3898593897892066 0  1.842184459051087 0.186443880058197 0  1.358107417651776 1.696381759610015 0  1.18859291992392 1.77598670078022 0  0.1875331222687418 0.7609599743339348 0  1.339536743965101 1.422080365801479 0  0.7788179348750389 0.9955343414928611 0  0.9062978492805438 0.1919636509126373 0  1.256007360640958 0.3160320559396114 0  1.09375 0 0  1.174986727221844 0.1594990293443933 0  2.34375 1.796875 0  2.318026474511116 1.589177949022232 0  2.34375 2.5 0  1.672742954892153 2.332882724550692 0  0.2683637361947215 1.874801596909639 0  2.174770749820102 0.5581009131310781 0  1.443279522965991 0.8870068372898454 0  0.3385416666666667 0.3571428571428572 0  0.78125 0 0  2.060421048269335 2.314363248763811 0  1.088078737088509 0.8967352118723447 0  1.087825368444708 1.454931510884769 0  2.018308232129541 0.8548495425854904 0  1.943987311736842 0.3246298523011434 0  1.71875 0 0  1.85337849796276 1.144833312386208 0  2.3486328125 2.1044921875 0  1.407588788651747 2.042968789119587 0  2.336309523809524 0.865366648092144 0  2.34375 0 0  2.5 0.15625 0  0.15625 2.5 0  0 2.34375 0  0.1638044648294291 1.242263417405867 0  0.356216654757926 1.032569427322806 0  0.3188217956111817 1.355736727000647 0  0.5924956460852111 0.36112522004736 0  0.6594216488965849 0.1603472116132387 0  1.841804599497131 1.72214349266521 0  0.15625 0 0  0 0.15625 0  2.115898634821499 1.894570904464496 0  0.7821877980253907 0.7129993435924866 0  1.003820447087786 0.4516053462784233 0  0.477562948779147 1.138333049293613 0  0.719493678605015 1.305655360135975 0  0.9772457618587566 2.020350128938537 0  0.8764738248887107 1.826219722709673 0  1.254787875123819 2.339010653832026 0  2.343597354852534 1.249982759769001 0  0.78125 2.5 0  0.46875 2.5 0  2.5 1.40625 0  1.09375 2.5 0  2.5 0.78125 0  2.5 1.09375 0  2.03125 0 0  2.5 0.46875 0  1.40625 0 0  0.46875 0 0  0 0.46875 0  0 1.40625 0  0 1.71875 0  0 2.03125 0  2.5 1.71875 0  2.5 2.03125 0  2.005424054645407 1.653223486966518 0  0.1538730573856537 1.559850281736677 0  2.33984375 2.33984375 0  1.166539506212474 1.922878979538754 0  0.3914885633949916 1.65887232812171 0  0.5795503163042564 1.766243562569382 0  0.399533125920212 1.946786875081388 0  0.7866324979014098 2.127719094551316 0  0.3654683023546834 0.1495701132219454 0  0.1527388747131078 0.6116379440619215 0  2.013737577140188 1.391056634712135 0  1.17635437372994 2.213329084238133 0  1.737118141866284 1.010577140843115 0  2.200707118087222 1.164723314085963 0  1.697018908736685 1.993548551451517 0  0.5387621649009668 0.6070503962352419 0  2.032805785855952 0.5330427622570983 0  1.082699501358059 1.667818725183932 0  1.503819781540653 0.5468420196858188 0  2.015409142866072 2.175941657590429 0  1.752057611265444 0.869642097111018 0  0.612251684107783 2.356045720700959 0  1.902817102342857 0.6607642211999982 0  2.159616561739693 0.7867739969338844 0  0.5120038350106624 2.197302352398502 0  1.888200216011548 1.919501662489862 0  1.495909909726654 2.16028358757309 0  0.489139876703609 1.443203008943564 0  0.8819175670410521 0.3301172743913011 0  1.882591144370812 0.8155965192707721 0  1.133979796994841 1.172526771862882 0  2.206217447916667 2.084147135416667 0  2.20361328125 2.36279296875 0  1.395746985657004 1.556054166359645 0  1.704383111516207 1.734750450338683 0  0.9575737847222222 2.36274223823052 0  1.035150984253136 0.1302833343179028 0  1.383966125325753 0.7651479963479179 0  1.64003252158672 0.6824316405528895 0  2.22550785055421 1.487078576356817 0  1.760964431499756 1.48495222505201 0  1.276460980673788 2.004207003584658 0  0.1341477688427096 1.828777507920502 0  1.542261434180652 1.155296658359034 0  1.334627911613854 0.9696897472490321 0  1.30794231473696 1.119420615785191 0  0.7028260459857245 0.4438906910721139 0  1.625757433094055 1.84268057552138 0  0.9818707849053143 1.165603626132254 0  2.0086489901463 1.243134585689553 0  1.934584460420609 2.374094051915812 0  1.798434376789567 2.38671361912528 0  1.206314791201715 1.382064292497919 0  0.6333752893366955 0.7023738550008095 0  0.7796219811205605 1.42573253164258 0  1.564399711917382 1.026040828857629 0  0.3385416666666666 0.4889012896825397 0  0.1041666666666667 0.390625 0  0.989112246382566 1.543537365516289 0  2.025724425454636 0.9846960595520872 0  0.6602885475034063 2.086117390485779 0  1.607130551925032 1.267198646640915 0  0.1317864544877056 0.8896173683400176 0  1.755387840017567 2.230364320056445 0  1.301540702984401 0.1216289692748247 0  1.433170657577442 0.3331052752740999 0  1.500459610550388 0.113513924782439 0  0.6494291520606965 1.029586599619295 0  1.010146149868299 0.794897284196169 0  0.3700844198238017 2.235390157870766 0  0.3360891767780704 2.36656279435396 0  1.876856241037701 1.437150669863757 0  1.778674102957329 1.245979347269706 0  0.5472829890977179 0.1005517127039925 0  0.4669074189005698 0.3416784232954367 0  1.472765289289269 1.850899166481903 0  1.555853593327178 1.608452097912802 0  0.6708955559113426 1.646561631116984 0  0.8164699620322933 0.5924479455478063 0  0.3167738989468366 1.758696809749795 0  0.2788007305565096 1.605499483471246 0  0.7821720982350511 0.181524936294752 0  1.376812251214195 2.313340247908297 0  1.785652202614777 0.5962261755537186 0  1.761467296310972 0.4679567244718574 0  2.2265625 1.8359375 0  2.3828125 1.9140625 0  0.5279531607054191 2.071552361614785 0  2.397573269551114 0.234375 0  2.383578172599618 0.3589298466020009 0  0.1024267304488855 2.265625 0  0.1164218274003825 2.141070153397999 0  0.2696857594953064 2.135405441512016 0  2.164961300137334 0.1375322943529536 0  2.137757548369486 0.2724194778647587 0  2.238873711826398 0.3626419179496562 0  0.1001414910226386 0.234375 0  0.2176339285714286 0.3478422619047619 0  0.2503620791333544 0.1061694061057066 0  2.336445461915368 0.1250451055247424 0  0.2154004640409726 2.3918124
[...]
<PointData  Scalars="f_16-2"> 
<DataArray  type="Float64"  Name="f_16-2"  format="ascii">-1.3990000045604862e-20  -1.3011409564963017e-21  -4.0380736834089914e-25  -2.5776872383335909e-22  -8.9021110555444672e-21  -2.7018444343813270e-21  -5.9999043662465245e-20  -2.0847284376501108e-16  -6.8874032407582240e-16  -1.3477087583843557e-16  -1.7387354313998641e-20  -1.7108943792597247e-20  -9.4399058681864490e-18  -1.8208840953900401e-24  -2.4539229268460201e-22  -7.2572617451043168e-21  -2.7150614734185676e-20  -2.5991706106908746e-19  -3.1980456383922835e-17  -1.2262032340161144e-16  -1.3440380338421823e-17  -6.5624204677905451e-16  -4.8116909378848053e-17  -5.2605304255258802e-16  -5.9704303198957165e-19  -9.9656628002034030e-17  -1.8887064516311721e-19  -1.2130761286704003e-18  -1.9948075907990224e-20  -3.9160296880799278e-23  -1.3242344996920322e-18  -3.2985942280515413e-17  -4.0462169587536399e-16  -2.1245755535874637e-18  -9.5949106053365412e-17  -5.4901676890036378e-16  -1.0747429548855036e-21  -1.0773832124149470e-15  -1.8613678943908897e-16  -4.2172871179214722e-19  -1.7429633037247786e-19  -5.2309619768773594e-19  -1.0380845474346378e-20  -1.3523087573527247e-17  -2.3088332427201969e-21  -3.4087631268261670e-21  -2.3384552103080273e-16  -1.2058324372643577e-15  -1.1741910440941609e-17  -2.1041692180089167e-21  -1.6585349528306153e-20  -1.2721336315430586e-20  -1.1848443216941839e-23  -1.4548852118197507e-22  -2.2919836743171734e-16  -8.1257241288184890e-17  -2.0824933327121326e-20  -2.3179051061115108e-25  -4.8094082952199534e-19  -6.5002042816020805e-20  -9.1735961616822724e-21  -2.7819804270503114e-18  -3.4204781238893648e-17  -2.1305938834359762e-18  -3.5685904580851884e-16  -1.9291157441544208e-17  -1.9948170179318154e-16  -3.9187413713226779e-21  -3.6945209519044034e-19  -1.0758875550729071e-18  -1.3774493580188847e-16  -3.1287044146375682e-18  -3.6979435844588001e-17  -6.1967084443375723e-16  -4.2688806306238488e-18  -3.7833621230790669e-16  -8.3889606695576288e-20  -2.6214693802117527e-20  -2.9049775951207758e-19  -5.5225867799544532e-21  -5.1435581048345549e-17  -4.6383995329144233e-18  -8.5000761941323988e-18  -1.0979955841547189e-17  -2.0533731486052544e-21  -2.9348811199354710e-24  -3.7353968685614371e-24  -4.9840023195794191e-18  -2.3753454011945335e-18  -1.8512712223716031e-19  -5.2458977251522355e-23  -1.6509069735766021e-22  -2.7436645986044353e-18  -8.3470948752893778e-21  -2.7393141361220316e-19  -1.4190203589086666e-16  -1.4882153496994106e-16  -5.2779231203829221e-20  -6.6066583708546852e-18  -9.6157200918702913e-20  -7.4789571264138761e-17  -1.6313248832327725e-17  -7.0504380455486382e-18  -2.4868183238925778e-16  -5.4073663631622164e-20  -7.7333822529214880e-16  -1.9564056579958040e-16  -7.0871335917323662e-16  -1.3383023163357625e-18  -5.1347156296920967e-20  -6.0962546336420310e-17  -2.3523511898382818e-16  -2.4125166309049066e-16  -1.0205666395557494e-15  -7.3324165589869032e-16  -8.9873877826864083e-17  -5.5735712183316747e-16  -4.4481015875063556e-19  -2.0639690241578503e-18  -5.9331039395506099e-17  -2.4046368952871980e-16  -1.1887188278839717e-19  -1.1451709648017651e-20  -9.6639342130687755e-16  -8.0880376995484271e-18  -8.3656078512674638e-22  -1.0707050402312279e-15  -6.7140066231746827e-20  -6.0404588633745160e-19  -1.7321433829692717e-21  -3.1391393408334116e-17  -5.4907144270336737e-17  -1.5912603225326000e-16  -1.1412741491685346e-20  -2.7031626267225330e-22  -1.6966628069358653e-16  -1.0683806586824644e-16  -2.3974499211272833e-16  -4.6333690036661859e-16  -1.2582311559706361e-15  -5.6314657349278861e-20  -4.3824470820390398e-20  -1.3224636310511512e-20  -1.3432541354291599e-20  -5.5486928590671126e-20  -9.2640649930649337e-20  -9.7346324823023908e-22  -3.3698872030701275e-19  -1.0762104647912071e-17  -7.9272180420890890e-23  -3.8915449923392921e-17  -3.8054782572704703e-16  -1.8172935545465464e-20  -4.7344336213257825e-20  -4.3179385778228343e-16  -6.2319166442739838e-16  -6.2624794931664957e-20  -1.3403176090753685e-22  -8.1568342834792612e-22  -5.6107961565906391e-18  -1.6941044312798014e-20  -1.0454910280010920e-17  -6.4672162518790949e-22  -2.3179666243795454e-24  -3.2578246534080608e-25  -1.3622227961094765e-20  -6.9371863640722465e-20  -2.0776440612175214e-16  -3.1262832664270755e-16  -1.6852096506740957e-16  -4.9320924126450383e-17  -1.3964249906919001e-19  -1.1631287885109708e-17  -3.7637715004313809e-22  -1.8024399968008128e-19  -5.1632665262608570e-19  -5.9507781216698680e-16  -6.3248841020149548e-18  -3.7521943844469161e-16  -5.1741076175099681e-16  -7.1894849550108217e-18  -3.2311253207053106e-17  -3.9576722315895555e-19  -2.2215356181225366e-20  -1.6199417736348079e-20  -1.3676260174744260e-20  -6.1723131626921636e-21  -3.7315723099759199e-20  -1.8694515733541424e-23  -7.8243018073177968e-22  -6.2323143028137968e-23  -2.5528808712882782e-25  -4.5339420575331525e-21  -1.5311499900484615e-20  -7.5512856489665271e-17  -1.5112026008316214e-16  -3.3166124560650556e-17  -2.5744841184145440e-18  -9.6319766583812348e-21  -4.3924181371640584e-21  -3.2514334759290802e-18  -8.1625923649803031e-17  -3.8117128802210994e-21  -3.0155599020481660e-17  -5.0702909087912689e-17  -2.4513432474490150e-17  -5.8712283427511534e-18  -1.2825024662204278e-18  -1.2538029661300626e-18  -2.1997271990886226e-16  -2.7642884618561657e-18  -1.5575790123168082e-18  -7.7799683078654780e-18  -9.0034051377230595e-20  -7.2399192511231035e-18  -9.0827139238154919e-16  -4.0835112762908140e-22  -2.0181097024410698e-16  -2.7031812825201141e-19  -2.1806854034912124e-19  -1.7935137962677794e-18  -7.4949977914494234e-20  -1.8268015818066938e-20  -3.5038997219649820e-21  -4.7942771332445748e-19  -3.4096359087182970e-18  -2.9504832411875924e-18  -1.4119467526965882e-16  -1.8624995346454195e-18  -1.8949569574008272e-19  -9.0929495350154523e-16  -8.0704478676002629e-20  -9.0789027966568904e-21  -2.7016620277186928e-16  -2.9268559530509709e-17  -1.1584782870862589e-19  -1.7440436060904800e-20  -1.8908158357302398e-17  -5.5492466107948666e-19  -2.8580814868113930e-19  -3.7564515106794517e-17  -1.6261215130518197e-17  -1.5913623655765049e-17  -1.0108511703963755e-16  -1.5622829016123722e-16  -4.0073390043013178e-16  -7.9657741814667311e-17  -2.8481290319881253e-17  -1.1537183201654571e-15  -1.8904849317811868e-18  -6.4808530286977812e-20  -1.1312394946243614e-19  -6.9748885062096629e-16  -9.9777147506970017e-16  -3.5984802771547433e-16  -4.3282159170144869e-17  -8.9065975876834812e-16  -2.2745700458037816e-16  -3.6067400003702235e-16  -2.1965220101832734e-19  -1.5394746396338860e-18  -9.4353876592576160e-17  -2.2501759101140842e-16  -7.1972489282684831e-19  -7.7528556093759119e-21  -1.4603315427486549e-20  -2.9953107689798826e-21  -9.8974046466462930e-16  -3.3869663851226032e-16  -3.1480594632780568e-19  -5.8577182222417962e-20  -1.2225373730370424e-17  -1.9842228148625917e-17  -5.5408891053677293e-20  -1.0583235115738987e-16  -4.7591157577575665e-17  -1.1219991001577983e-16  -6.4656281784506083e-17  -2.0788624377781632e-16  -2.6238964496861052e-17  -6.6903585982062415e-17  -1.1296914456915586e-19  -5.7000614203295673e-19  -2.8081107475618027e-20  -4.2087514417268553e-21  -2.1555473900598173e-19  -2.4353030677313022e-20  -1.8162747282732801e-18  -7.2705048759922624e-25  -8.7189863125370237e-25  -2.0943307345550856e-19  -8.6790441826637654e-19  -9.1389662205459918e-19  -1.3574190376358577e-23  -1.7091305790529704e-23  -5.8980614287580637e-24  -2.8977236603643444e-17  -6.0543293467438033e-16  -1.2052508306146016e-19  -1.8930845530495753e-24  -4.3487535331639234e-20  -1.0117850955112402e-18  -7.0100711684531049e-20  -7.8685811187591633e-22  -3.7936852302195624e-17  -4.8404164251761675e-19  -1.7231924428020504e-18  -3.9283230580907715e-18  -8.9392600795043735e-17  -1.0581157440696929e-15  -5.6329642025800257e-18  -1.3644682453612569e-22  -7.4207780274638139e-24  -7.6361427274341570e-23  -5.4628211158014483e-21  -2.8707677702570715e-16  -1.0323050296642746e-17  -9.2256658493704319e-18  -8.4199472382801368e-18  -5.1045120154528116e-19  -1.7898196925206228e-16  -5.7491740764759628e-22  -7.6405572822675222e-16  -7.7870774721660209e-17  -7.1885765417792032e-17  -6.3669775401600814e-22  -1.9439633312490433e-20  -3.0371745482038379e-20  -4.4265813708139563e-18  -2.3222270406432898e-16  -1.2187490107804674e-21  -1.7124453135838135e-16  -3.8067098700715323e-16  -1.3446114959348061e-18  -1.4385682803296567e-18  -2.1003641651207922e-22  -1.2166924661769886e-19  -1.2430195926843402e-16  -1.8309009848155223e-16  -1.9427630859173555e-20  -1.2609415308165251e-19  -1.2518355004079356e-15  -1.3213974977301135e-21  -2.0639168967108787e-18  -6.8720238806292904e-19  -4.3495834312616967e-22  -2.5535400612430552e-20  -5.9898599836481817e-18  -2.6356710512040684e-16  -4.5227731366131960e-20  -8.9294802444144448e-16  -4.4343245788505838e-16  -9.8899119071921130e-16  -6.3277484472132556e-16  -8.1785663714885281e-21  -5.5009187560585963e-17  -2.2455944679259761e-16  -1.1391289270702228e-20  -4.2391440412938960e-21  -1.4663860544822416e-19  -3.8754721033924830e-20  -8.6048513656441313e-22  -4.7830881037753185e-18  -7.4311804521905755e-19  -1.1069005551828337e-18  -1.1836890768183808e-20  -3.7720397111306042e-21  -2.5523503491068080e-18  -3.1547373850866289e-18  -1.5222380351398433e-17  -4.8495237099550725e-16  -1.1891504296055075e-16  -3.5949371023207192e-17  -9.8815725935152005e-20  -1.4826115310037537e-16  -9.8546955093202013e-16  -2.9381302263441054e-16  -1.4784558759298804e-19  -1.1160334704797326e-15  -3.9002350821637754e-16  -9.8303225498155260e-16  -7.6487596556052655e-16  -3.0844876419428418e-20  -6.5940745208590706e-16  -9.1144429346095660e-17  -3.7694222513065106e-16  -1.5656843002992957e-17  -2.9375022009902121e-18  -5.0389539618602060e-21  -2.8139131337731971e-16  -3.5081041750163404e-19  -3.9685616408618391e-18  -4.4637530682029653e-19  -2.5980114980463425e-16  -1.1137767161368100e-15  -1.9961245792863421e-19  -3.0507878304520548e-16  -1.8592742080844740e-21  -1.1512576641400721e-19  -7.7320797352124381e-16  -1.5467387162439817e-16  -2.3507532694084155e-16  -1.1044609245879113e-18  -1.0237165915284003e-19  -4.0210408839908461e-16  -4.4153916860677453e-19  -2.3596406116074934e-19  -1.0185709095592451e-16  -1.1161742849724352e-15  -8.8064895010168944e-25  -1.7555770332988862e-17  -4.7962710950545084e-17  -1.5825898089221420e-16  -1.7072777786549437e-23  -3.6084164930729348e-17  -8.6285101106136866e-17  -2.2895312864885633e-17  -1.0627512855036590e-15  -6.1256099250228194e-16  -1.5034957353022529e-20  -8.6505011954964750e-16  -2.5899448958606652e-17  -6.2527392448120327e-18  -1.2083755889969919e-18  -2.2748707774595653e-16  -2.4960940137148669e-16  -1.2735716977991266e-17  -2.5357063734896003e-17  -5.3714718569603442e-18  -1.4699258903226556e-18  -1.8231693695021073e-20  -5.4252848640269610e-16  -4.3529635878660851e-20  -1.6052016891796465e-19  -4.9500866209869777e-23  -1.2324186973336644e-20  -3.9670414223539429e-18  -4.9678482321478665e-21  -7.7361365297747490e-18  -2.5047289186629908e-20  -3.6686110506958823e-23  -3.1031257038006277e-17  -7.4379101753213525e-16  -4.0149449075690729e-22  -2.7162174829478360e-21  -1.2504795289105806e-15  -6.1138830097891347e-17  -4.7563214769836682e-18  -2.5151441437786662e-19  -5.4579044044543610e-24  -2.0750251307727698e-16  -2.3531421870263024e-16  -1.4297414047030224e-18  -2.5264761920953201e-20  -3.0077809964720405e-21  -2.5745620443717951e-20  -1.5032495621558736e-16  -8.1875539292424048e-16  -8.0342024421856938e-16  -2.0151618837152169e-16  -9.6115501329278629e-17  -3.2993578307479679e-19  -1.9887657410836569e-16  -2.7040338967629600e-23  -3.7280327021211734e-23  -1.6967481372762288e-16  -3.4013901830929911e-19  -4.8877245954188698e-16  -4.8479761912284901e-20  -3.6362699743672325e-16  -1.1672661729176314e-22  -1.4691641093352610e-17  -6.2870714021638392e-17  -3.9335806533161172e-20  -5.5906555273105798e-20  -1.2523255690301491e-20  -1.0377917493982480e-16  -5.5432282444404637e-17  -2.7503210693834333e-16  -3.1710883120277528e-19  -1.2648444026860583e-20  -1.1800809938463882e-19  -2.9803239957278020e-20  -1.7655214104380618e-19  -4.1802916732775983e-16  -5.9132578921562563e-20  -1.2776971557240460e-16  -2.9709859039803720e-20  -7.4332354643865241e-16  -8.9396843902803274e-19  -1.6646159850476023e-16  -4.7135510941088048e-20  -1.2247596326606014e-18  -3.1416535489740753e-17  -5.6012254109417050e-23  -7.5731008851079115e-20  -4.5488386396178682e-18  -7.6344302496729042e-19  -8.0174219282611883e-18  -2.1815905010588255e-19  -2.9721943247028464e-21  -4.5031798369989054e-17  -6.4809196938997986e-16  -1.4795301592567644e-20  -5.3689520521099855e-25  -1.2205635210370793e-24  -8.3229098511203150e-20  -1.8617121721223036e-20  -1.4417763294695664e-17  -2.0349924122511547e-17  -2.1553019240246777e-18  -2.8959307248493649e-20  -1.2190133642007136e-18  -5.7836640891887266e-18  -2.8527943659232443e-17  -4.4800941517521366e-16  -1.5337785134384805e-18  -1.8372833329872886e-17  -4.0985825700908361e-18  -3.1827626046190680e-20  -3.9666182706971807e-20  -1.3358447137343738e-20  -5.2431146592666924e-19  -4.7099855803766721e-16  -4.2206872302052332e-22  -4.8835468770622214e-19  -1.5006199056347643e-17  -1.1577345876271912e-17  -3.8323696232215171e-18  -8.7889779053832434e-18  -2.5265038258990072e-18  -6.1087468072898555e-19  -5.3162641178759489e-22  -1.0058657924596407e-20  -6.6907199084186313e-24  -5.3167454412032654e-20  -1.1528799645900690e-20  -2.7897994561765402e-19  -1.8620700807069746e-20  -7.1991207472857884e-20  -2.5212257838727096e-20  -3.8058174123719059e-25  -2.5759279719312463e-18  -7.5362322814476476e-23  -2.5360528462070631e-16  -2.9949955219098580e-16  -1.6320422660617008e-17  -8.6607458435926987e-19  -1.1583861422331716e-19  -4.5243324240156809e-17  -5.9506657692614862e-21  -2.8940639476315887e-20  -7.4760738542717697e-17  -8.4386804718975954e-17  -2.1500421585331933e-24  -4.8540649458070964e-19  -6.7735489259361130e-17  -5.7653625965734944e-18  -4.4853615384886603e-18  -3.2799297558423980e-19  -5.2361376499092666e-24  -2.2730015058996608e-16  -7.6689394736526197e-16  -4.1101208010898243e-16  -4.9274158355819185e-17  -7.0196567387816791e-25  -3.4177587899358453e-17  -2.1662052577304218e-16  -1.1567970285140236e-23  -9.7491064235911092e-20  -3.0350026985449198e-21  -1.0794277614380096e-19  -4.5685495694445399e-18  -2.0708910496322151e-21  -1.8175665012687667e-16  -2.8012476240542101e-19  -9.6308677360695635e-21  -2.8165849896849554e-16  -1.0616179048094875e-16  -1.7972148312220935e-16  -6.9936350595270182e-20  -2.6301057623049123e-22  -3.9104527565055653e-17  -1.4281425211248073e-17  -3.8316042194311735e-19  -2.3211926339690873e-18  -5.7915920110911864e-21  -6.2908855904766423e-16  -2.6748336781245454e-16  -3.1258632639934211e-16  -4.4072173629168509e-17  -2.0342071250442936e-16  -3.3675605949331892e-16  -2.9486883384399490e-18  -1.7488720184796590e-19  -6.1096271118547923e-19  -1.8876140148989121e-17  -1.6687303756004788e-16  -1.9846884585373117e-17  -2.7822306682805800e-20  -1.1924987241739229e-18  -2.1524222089527409e-16  -2.0519959472767775e-17  -2.1134422502297720e-21  -3.4039686870381140e-22  -5.3807945519003202e-16  -5.5433949351634940e-16  -2.2264061689349351e-16  -1.3382125246711860e-16  -3.8941979813788462e-16  -1.5570668865862105e-17  -2.2439637561764871e-20  -1.5245090069956273e-20  -2.1392204910001899e-19  -1.4851200812797940e-23  -4.3153234308463993e-20  -2.3286144126906801e-17  -8.7630805725359106e-20  -2.5105932324603548e-16  -1.1697096383638202e-18  -1.1018882928534360e-17  -8.7644951754016865e-19  -3.3151025422568042e-19  -1.1983245672147373e-21  -2.5703724516565406e-21  -5.0711388414402230e-19  -6.4868510037816663e-21  -9.5209814341639085e-21  -6.9415287303665777e-18  -1.0508264397761371e-18  -4.7129672142616802e-25  -6.1984228342288927e-16  -9.5397940133266521e-16  -6.0738563736512058e-18  -2.2856107111098231e-18  -1.5790168843078810e-16  -7.6057276690868648e-19  -1.9801423034137990e-20  -4.7522758845008822e-20  -8.3807695449675740e-24  -6.2656044693768641e-23  -3.9336001235199922e-20  -1.4622421278066003e-19  -9.0842944283069262e-16  -4.1351301742626677e-17  -1.1462509425609288e-18  -3.0624214371420341e-18  -3.2335998185985109e-17  -6.7096909624253521e-19  -7.5996465650135358e-22  -1.1820747161407335e-16  -1.0532263041130520e-15  -8.1743887137594380e-17  -5.3375187579835135e-18  -3.6761743566438584e-20  -7.0597054693049668e-21  -1.0343668025543002e-18  -2.0827357529428358e-16  -1.4765803513267498e-19  -2.1981112671428991e-20  -1.1008733801885892e-20  -1.7114171021797751e-21  -1.8369042425843698e-20  -6.7199575450780102e-21  -2.9536705422071315e-20  -1.4481670985537835e-20  -6.2121330766045515e-20  -5.4918398523606737e-17  -1.6499004345763387e-20  -1.0485160580326356e-20  -4.2845924305914420e-22  -1.3542881971160824e-21  -1.5082968543374627e-21  -4.1253591620636918e-21  -7.8487128719507948e-21  -2.3589814131091696e-16  -2.2530411997769903e-16  -1.8454670790690273e-16  -4.9364860050985948e-20  -1.6397252986031989e-16  -1.7509485718368222e-20  -1.2834273266145202e-22  -5.2879750690498769e-18  -1.3112274153144612e-20  -4.6411090621979255e-21  -1.7905569927601197e-19  -2.6198903169614466e-25  -1.6264671376612881e-20  -3.2824975936889285e-21  -2.0124450289166846e-18  -4.4040609551273574e-17  -3.8240597118464394e-20  -1.3944787079741708e-21  -4.6234104405477034e-22  -4.5436779272147148e-22  -1.1196544414733125e-16  -6.3632804336864483e-20  -1.0633694259802071e-16  -9.0418994190431745e-21  -3.4348803938878776e-21  -2.1653574672300789e-25  -5.9146350942379809e-20  -1.9935101151113975e-18  -2.3328409430661229e-16  -3.6521290810446377e-20  -1.2330424588649848e-18  -1.4625155355685003e-19  -5.1057673501976284e-16  -1.1165201946444486e-15  -7.6776820088474160e-16  -1.8636721564298386e-19  -2.5162949418150759e-20  -1.2001713231966284e-15  -1.3282148107579919e-16  -2.9281334440465906e-18  -7.5769373073269244e-16  -1.1910317218319312e-17  -3.0861134602152459e-18  -1.1860653921869236e-16  -8.4279543790768030e-17  -6.0427203186268868e-17  -1.7865115111873223e-16  -2.1706618618334263e-16  -3.5665401018092382e-16  -3.0584508938151473e-20  -3.0170015857665917e-17  -1.6004699272813676e-17  -2.1728922456738864e-19  -1.1848937407496771e-15  -1.7341334407993159e-20  -9.2449216029535573e-17  -6.8011679763734702e-18  -1.0521742557779128e-15  -3.5606489053879522e-16  -3.4214376610357651e-16  -7.0944518788336418e-18  -2.0951303680988818e-19  -1.1255008775804408e-15  -1.2053403007412896e-15  -2.9247307430214407e-22  -7.3709451050305423e-21  -9.1631631292780592e-16  -1.0035641120249976e-20  -7.4764277007754495e-22  -3.6186958660164607e-16  -1.8823855296162228e-17  -2.4948108829391929e-16  -3.2695456144438965e-17  -2.2846394440549529e-16  -2.1509556090096952e-19  -4.5799359182541011e-17  -3.6071730181145374e-17  -3.3810086803804339e-18  -6.4281992138937934e-18  -3.7813494784715843e-18  -1.7303201043380652e-18  -1.4916882779248389e-18  -8.3891684818591204e-19  -1.5143298867167997e-16  -9.2586240996523254e-18  -2.1557315274319202e-17  -3.9831418405490196e-17  -1.1077522830326858e-17  -8.1199513888895067e-18  -3.5721631347970371e-19  -6.8060899285294622e-17  -5.2978210084562579e-20  -9.4247814411796025e-21  -1.8690522489726860e-18  -1.4448274721360411e-17  -7.1771064250252099e-17  -6.0293634592563512e-17  -3.2523118512971890e-17  -5.4332635771931877e-16  -1.4246905227295804e-23  -7.3499788772978884e-19  -7.8336019015142919e-19  -3.8872683132730595e-19  -5.8263066765738985e-19  -2.5030808089061812e-19  -5.1391009766794129e-19  -1.4040879950972809e-16  -5.5592170574275877e-21  -2.5091926152188494e-19  -1.5135120049940892e-22  -3.2025199582866558e-19  -1.2606949215833634e-16  -2.6537661130375801e-16  -2.1728597908704778e-16  -1.0352896405308459e-16  -7.1041700126271221e-23  -6.6607739344130063e-16  -7.4500472750599100e-21  -2.7016566730918194e-19  -8.2630702679607679e-16  -1.8737002160081926e-22  -3.38419709