<?xml version="1.0"?>
<VTKFile type="UnstructuredGrid"  version="0.1"  >
<UnstructuredGrid>
<Piece  NumberOfPoints="6486" NumberOfCells="12696">
<Points>
<DataArray  type="Float64"  NumberOfComponents="3"  format="ascii">0 2.5 0  0 0 0  2.5 0 0  2.5 2.5 0  1.25 0 0  2.5 1.25 0  1.25 2.5 0  0 1.25 0  1.25 1.25 0  0 0.625 0  0.625 0 0  0.625 2.5 0  0 1.875 0  2.5 0.625 0  1.875 0 0  2.5 1.875 0  1.875 2.5 0  1.770833333333333 0.7291666666666666 0  0.7291666666666666 1.770833333333333 0  0.9375 0.625 0  1.875 1.5625 0  0.642361111111111 1.163194444444444 0  1.341594827586207 1.883979885057471 0  0.46875 0.46875 0  2.03125 2.03125 0  0.3626104797979798 1.513178661616162 0  1.381740196078431 0.4564950980392157 0  0.9375 2.172619047619047 0  2.172619047619047 0.9375 0  2.096354166666667 0.4036458333333332 0  0.4036458333333333 2.096354166666667 0  1.684027777777778 1.163194444444444 0  0.3418803418803419 0.8693910256410255 0  1.642742622813391 2.162164207604464 0  1.275619849389031 0.8465650753054845 0  0.9136284722222221 1.434461805555556 0  1.732437511238546 0.3406962303960658 0  0.9714402568595876 1.029779313093998 0  1.52281746031746 1.485615079365079 0  2.1875 1.71875 0  1.06819722569879 0.2997236128493951 0  2.136114211309524 1.303478422619048 0  0.3125 0 0  0 0.3125 0  2.5 2.1875 0  2.1875 2.5 0  0.3200021620376328 1.192323085056694 0  0.6738456129277992 0.8304377375553881 0  1.757891808928991 1.861952730357003 0  1.5625 0 0  0.9375 0 0  0.3125 2.5 0  2.1875 0 0  2.5 0.9375 0  0 0.9375 0  0 1.5625 0  0.9375 2.5 0  2.5 0.3125 0  0 2.1875 0  1.5625 2.5 0  2.5 1.5625 0  0.7448220909826522 0.3003573636608841 0  1.027298850574712 1.871151477832512 0  1.331260495098891 2.197262878816185 0  1.207917681892289 1.582765010956622 0  0.4339993447432606 1.801186844743261 0  0.6337298768939392 1.443093039772727 0  2.049851190476191 0.6826636904761904 0  0.6584821428571428 2.219122023809524 0  1.89575676467455 0.9798457973793544 0  1.437570562095628 1.059380588255917 0  1.502090052505845 0.6987070896496241 0  0.2040860661083546 1.705323965099331 0  0.2083333333333333 0.46875 0  0.5070952039991439 0.2211150679997147 0  0.6916302856529919 0.5813591430410241 0  2.265625 1.953125 0  2.2265625 2.2265625 0  1.886424081252096 2.243391360417365 0  1.40625 0.202164758520858 0  0.2269345238095238 0.2269345238095238 0  1.152730869673694 0.5225850378741401 0  1.885631899587912 1.312095130148776 0  1.614808884009367 0.9049784971014416 0  1.890095442220658 0.5126535558463003 0  2.323168682795699 0.46875 0  2.268811725689575 0.2304742875213018 0  0.6002389442105756 1.967426444210576 0  0.1768313172043011 2.03125 0  0.2311882743104251 2.269525712478698 0  2.03125 0.176831317204301 0  2.280262553344767 0.6954945504579233 0  1.979219539285994 1.809922269642997 0  2.336309523809524 1.09375 0  1.09375 2.336309523809524 0  0.9314042474388009 1.662973812215543 0  0.1634067999087722 1.40625 0  2.337090640094896 1.40625 0  1.141616997467638 2.069311773587991 0  0.46875 2.338939559681489 0  1.542440307908715 1.734944797244472 0  1.556713687786879 1.956977865354753 0  0.8264238995344066 1.975424467820646 0  1.466326331454725 1.275271369760862 0  1.655675324257095 0.5444159974393489 0  0.3385416666666666 0.6479255698005697 0  0 0.78125 0  0.5236073939200119 0.984090461540625 0  2.091665741047893 1.519793517904215 0  1.71875 2.5 0  0.5356538886262603 1.623137930505009 0  0 1.09375 0  0.1932884281517095 1.015625 0  0.8569313582417669 1.2198915584249 0  0.8876981284879677 0.8329884081524883 0  1.115618488474214 0.7219586973356271 0  1.186950366204949 1.043465130075318 0  2.057459118787237 1.110823087309335 0  1.830651283878689 2.049810069572418 0  1.689107969301489 1.367247437031697 0  0.4921048768039656 1.298643370653124 0  0.8213975694444444 2.336309523809524 0  2.03125 2.5 0  1.049729400480002 1.283723261332814 0  1.308101375801673 0.6489479469700392 0  2.5 2.34375 0  0.4968777175037714 0.7562964879736076 0  1.40625 2.5 0  1.501347663534097 2.307027627307738 0  1.602813712048603 0.1926218191360736 0  0.8393082906308107 0.463778306132633 0  1.682663349152719 1.598471865581041 0  0.7774174680851571 1.560004941327907 0  1.554204170364662 0.3898593897892066 0  1.842184459051087 0.186443880058197 0  1.358107417651776 1.696381759610015 0  1.18859291992392 1.77598670078022 0  0.1875331222687418 0.7609599743339348 0  1.339536743965101 1.422080365801479 0  0.7788179348750389 0.9955343414928611 0  0.9062978492805438 0.1919636509126373 0  1.256007360640958 0.3160320559396114 0  1.09375 0 0  1.174986727221844 0.1594990293443933 0  2.34375 1.796875 0  2.318026474511116 1.589177949022232 0  2.34375 2.5 0  1.672742954892153 2.332882724550692 0  0.2683637361947215 1.874801596909639 0  2.174770749820102 0.5581009131310781 0  1.443279522965991 0.8870068372898454 0  0.3385416666666667 0.3571428571428572 0  0.78125 0 0  2.060421048269335 2.314363248763811 0  1.088078737088509 0.8967352118723447 0  1.087825368444708 1.454931510884769 0  2.018308232129541 0.8548495425854904 0  1.943987311736842 0.3246298523011434 0  1.71875 0 0  1.85337849796276 1.144833312386208 0  2.3486328125 2.1044921875 0  1.407588788651747 2.042968789119587 0  2.336309523809524 0.865366648092144 0  2.34375 0 0  2.5 0.15625 0  0.15625 2.5 0  0 2.34375 0  0.1638044648294291 1.242263417405867 0  0.356216654757926 1.032569427322806 0  0.3188217956111817 1.355736727000647 0  0.5924956460852111 0.36112522004736 0  0.6594216488965849 0.1603472116132387 0  1.841804599497131 1.72214349266521 0  0.15625 0 0  0 0.15625 0  2.115898634821499 1.894570904464496 0  0.7821877980253907 0.7129993435924866 0  1.003820447087786 0.4516053462784233 0  0.477562948779147 1.138333049293613 0  0.719493678605015 1.305655360135975 0  0.9772457618587566 2.020350128938537 0  0.8764738248887107 1.826219722709673 0  1.254787875123819 2.339010653832026 0  2.343597354852534 1.249982759769001 0  0.78125 2.5 0  0.46875 2.5 0  2.5 1.40625 0  1.09375 2.5 0  2.5 0.78125 0  2.5 1.09375 0  2.03125 0 0  2.5 0.46875 0  1.40625 0 0  0.46875 0 0  0 0.46875 0  0 1.40625 0  0 1.71875 0  0 2.03125 0  2.5 1.71875 0  2.5 2.03125 0  2.005424054645407 1.653223486966518 0  0.1538730573856537 1.559850281736677 0  2.33984375 2.33984375 0  1.166539506212474 1.922878979538754 0  0.3914885633949916 1.65887232812171 0  0.5795503163042564 1.766243562569382 0  0.399533125920212 1.946786875081388 0  0.7866324979014098 2.127719094551316 0  0.3654683023546834 0.1495701132219454 0  0.1527388747131078 0.6116379440619215 0  2.013737577140188 1.391056634712135 0  1.17635437372994 2.213329084238133 0  1.737118141866284 1.010577140843115 0  2.200707118087222 1.164723314085963 0  1.697018908736685 1.993548551451517 0  0.5387621649009668 0.6070503962352419 0  2.032805785855952 0.5330427622570983 0  1.082699501358059 1.667818725183932 0  1.503819781540653 0.5468420196858188 0  2.015409142866072 2.175941657590429 0  1.752057611265444 0.869642097111018 0  0.612251684107783 2.356045720700959 0  1.902817102342857 0.6607642211999982 0  2.159616561739693 0.7867739969338844 0  0.5120038350106624 2.197302352398502 0  1.888200216011548 1.919501662489862 0  1.495909909726654 2.16028358757309 0  0.489139876703609 1.443203008943564 0  0.8819175670410521 0.3301172743913011 0  1.882591144370812 0.8155965192707721 0  1.133979796994841 1.172526771862882 0  2.206217447916667 2.084147135416667 0  2.20361328125 2.36279296875 0  1.395746985657004 1.556054166359645 0  1.704383111516207 1.734750450338683 0  0.9575737847222222 2.36274223823052 0  1.035150984253136 0.1302833343179028 0  1.383966125325753 0.7651479963479179 0  1.64003252158672 0.6824316405528895 0  2.22550785055421 1.487078576356817 0  1.760964431499756 1.48495222505201 0  1.276460980673788 2.004207003584658 0  0.1341477688427096 1.828777507920502 0  1.542261434180652 1.155296658359034 0  1.334627911613854 0.9696897472490321 0  1.30794231473696 1.119420615785191 0  0.7028260459857245 0.4438906910721139 0  1.625757433094055 1.84268057552138 0  0.9818707849053143 1.165603626132254 0  2.0086489901463 1.243134585689553 0  1.934584460420609 2.374094051915812 0  1.798434376789567 2.38671361912528 0  1.206314791201715 1.382064292497919 0  0.6333752893366955 0.7023738550008095 0  0.7796219811205605 1.42573253164258 0  1.564399711917382 1.026040828857629 0  0.3385416666666666 0.4889012896825397 0  0.1041666666666667 0.390625 0  0.989112246382566 1.543537365516289 0  2.025724425454636 0.9846960595520872 0  0.6602885475034063 2.086117390485779 0  1.607130551925032 1.267198646640915 0  0.1317864544877056 0.8896173683400176 0  1.755387840017567 2.230364320056445 0  1.301540702984401 0.1216289692748247 0  1.433170657577442 0.3331052752740999 0  1.500459610550388 0.113513924782439 0  0.6494291520606965 1.029586599619295 0  1.010146149868299 0.794897284196169 0  0.3700844198238017 2.235390157870766 0  0.3360891767780704 2.36656279435396 0  1.876856241037701 1.437150669863757 0  1.778674102957329 1.245979347269706 0  0.5472829890977179 0.1005517127039925 0  0.4669074189005698 0.3416784232954367 0  1.472765289289269 1.850899166481903 0  1.555853593327178 1.608452097912802 0  0.6708955559113426 1.646561631116984 0  0.8164699620322933 0.5924479455478063 0  0.3167738989468366 1.758696809749795 0  0.2788007305565096 1.605499483471246 0  0.7821720982350511 0.181524936294752 0  1.376812251214195 2.313340247908297 0  1.785652202614777 0.5962261755537186 0  1.761467296310972 0.4679567244718574 0  2.2265625 1.8359375 0  2.3828125 1.9140625 0  0.5279531607054191 2.071552361614785 0  2.397573269551114 0.234375 0  2.383578172599618 0.3589298466020009 0  0.1024267304488855 2.265625 0  0.1164218274003825 2.141070153397999 0  0.2696857594953064 2.135405441512016 0  2.164961300137334 0.1375322943529536 0  2.137757548369486 0.2724194778647587 0  2.238873711826398 0.3626419179496562 0  0.1001414910226386 0.234375 0  0.2176339285714286 0.3478422619047619 0  0.2503620791333544 0.1061694061057066 0  2.336445461915368 0.1250451055247424 0  0.2154004640409726 2.3918124
[...]
<PointData  Scalars="f_124-2"> 
<DataArray  type="Float64"  Name="f_124-2"  format="ascii">-2.0535032262029795e-11  -2.5702348854924686e-12  -1.2721662762227392e-12  -1.0342812518160224e-11  -2.2627663741588260e-12  -1.2417776285844792e-12  -2.0604998482263973e-11  -1.6330447949686975e-11  -1.0150090046758612e-11  -8.8759328077737631e-12  -2.5684367817716241e-12  -2.0581670450758025e-11  -2.0231890240215492e-11  -1.2067309070829553e-12  -1.7753192484879210e-12  -2.9272026136122992e-12  -1.8940363897145401e-11  -1.8816987451900530e-12  -1.9804107170494197e-11  -3.7300762158738690e-12  -5.8017267858667762e-12  -1.5429587044910126e-11  -1.8977008124262746e-11  -5.4464419091529052e-12  -1.1287084391648567e-11  -1.8384141337870062e-11  -2.1957140417300191e-12  -2.0792264031361252e-11  -1.5035142438426197e-12  -1.5628631340094356e-12  -2.0710753725586429e-11  -3.2693711590929062e-12  -1.2333473226777138e-11  -1.8909514431383775e-11  -3.4465158709156020e-12  -1.7240911266247563e-11  -1.8777905341178181e-12  -9.9926374144720594e-12  -1.0198008932512822e-11  -4.0214972373279680e-12  -2.4016160231690015e-12  -1.9154653514098662e-12  -2.5948460823075556e-12  -4.2654970589249503e-12  -6.2683147132165540e-12  -1.5334339537266381e-11  -1.5959431968063035e-11  -1.0077676432644793e-11  -1.3143616325402663e-11  -2.0209550310186092e-12  -2.4540617077863350e-12  -2.0521412516368730e-11  -1.5063904443165386e-12  -1.1970691991985971e-12  -1.3445180859397023e-11  -1.8658438016319107e-11  -2.0594542093373106e-11  -1.2357812956814170e-12  -2.0790801866621925e-11  -2.0337754905064727e-11  -1.5687451575770885e-12  -2.6413228773166408e-12  -2.0110017784927673e-11  -2.0597537160648652e-11  -1.6775846557766099e-11  -1.9881910221051282e-11  -1.7960189992810035e-11  -1.5988727142013552e-12  -2.0806323766991659e-11  -1.8646634907618816e-12  -4.1814385379938300e-12  -2.1836395157823766e-12  -1.9450171629879341e-11  -6.4222406796364030e-12  -2.7731135392180017e-12  -5.1795143910630931e-12  -5.9010199314148311e-12  -1.1027432315082967e-11  -1.6940599172859611e-11  -2.1495945421978218e-12  -3.3066202627905666e-12  -2.4587188543424450e-12  -3.0332667963031035e-12  -2.3338716151211812e-12  -1.7410293057230909e-12  -1.3505107851527075e-12  -1.4183127552280012e-12  -2.0448544936243156e-11  -2.0621527328012483e-11  -2.0794302405371438e-11  -1.6316986625017273e-12  -1.3844712310918562e-12  -8.2051426386982642e-12  -1.3520762866238414e-12  -2.0787643097079881e-11  -1.9176579144970541e-11  -1.7584176006535421e-11  -1.6149166172526906e-12  -2.0599676188367274e-11  -2.0758965520556503e-11  -1.4612565443984854e-11  -1.7722560132621605e-11  -2.0470115156208351e-11  -6.9309464607667671e-12  -1.9704705387295277e-12  -9.1275159741638593e-12  -1.1533261020517840e-11  -1.3610913876723782e-11  -3.0829026306273861e-12  -1.9858066196819641e-11  -1.9089338913271821e-11  -1.5002661334291465e-11  -1.4276436993841848e-11  -1.4928439749904867e-11  -7.2568062804207859e-12  -3.4037076815481804e-12  -7.0983628853222391e-12  -1.7404503028095455e-12  -1.5011444074690973e-11  -5.3580929925216289e-12  -1.6897131921550888e-11  -2.0781219401720530e-11  -1.7353774026715440e-11  -1.3942609647574710e-11  -2.4127170308171337e-12  -8.4754084688946341e-12  -1.0326087563552159e-11  -2.0537073644833879e-11  -2.0389220961194786e-11  -1.9895723811093296e-12  -2.9999360738734374e-12  -9.4420961223486189e-12  -1.8747882699329042e-11  -2.0439123451284228e-12  -1.7807067923707167e-12  -1.6624470694408804e-11  -1.9080227259009700e-11  -1.0989144661088894e-11  -1.2006746725327582e-11  -1.1948154622178669e-11  -2.4750829131139615e-12  -2.2752397083933594e-12  -2.3653379588156775e-12  -2.3284610592112472e-12  -3.3311801799072422e-12  -2.2332874870408403e-12  -1.2655830912102929e-11  -1.9703021879164112e-11  -2.0168300108542819e-11  -1.4781675777836590e-12  -2.8282267013910771e-12  -4.5519410121260799e-12  -2.5183611612502368e-12  -1.5286296758457307e-11  -5.8063810342127454e-12  -1.6201303790756473e-11  -1.6496171794142015e-12  -1.6960585602819975e-12  -1.9026134796301920e-12  -2.3195541758271634e-12  -6.9628274680197062e-12  -1.9768031930750822e-11  -1.3271509875319135e-12  -1.3881463952542005e-12  -1.2603024846333888e-12  -2.0531745863990407e-11  -2.0720748792157772e-11  -1.6368540762085338e-11  -1.4285556137677174e-11  -1.7289305263158289e-11  -3.2880589689115531e-12  -2.5762465138432537e-12  -9.0130422356799767e-12  -2.5681321263209940e-12  -2.8702318226124339e-12  -7.3379211516643675e-12  -6.3630435691476822e-12  -2.5777307309418166e-12  -1.5341168549766072e-11  -1.6713519059980306e-11  -2.0564198199239373e-11  -2.0013093533051064e-11  -2.0755569480909039e-11  -1.4150591461096756e-12  -2.0588852519945238e-11  -2.0535173408070656e-11  -1.3309538175292099e-12  -2.0606233916321987e-11  -1.2075770961825673e-12  -1.2097539833235793e-12  -1.6467692188751242e-12  -1.2155883830036301e-12  -2.1350515372241534e-12  -2.5976019390408045e-12  -6.3697219134929887e-12  -1.7538315932529494e-11  -1.9536808867177820e-11  -2.0604616314607901e-11  -2.0564786811192400e-12  -4.3764194346240539e-12  -5.2362055933089052e-12  -1.8652006611681041e-11  -1.0807735595033020e-11  -2.0083604312293258e-11  -1.9180467577489262e-11  -1.9781126484184506e-11  -2.0388610514324021e-11  -2.0747953895044636e-11  -2.7449197033814847e-12  -8.7142347502406175e-12  -2.7715393616257195e-12  -2.0774028122513687e-11  -2.2705884391645510e-12  -1.5547694238235966e-12  -1.6235504259219472e-11  -7.3172684358218952e-12  -1.6172268068333860e-12  -1.8701785655318961e-11  -2.1012713155122383e-12  -1.3992505366965111e-11  -1.9811385814984999e-12  -2.0751994090184287e-11  -1.7385346853690890e-12  -1.4993924960825956e-12  -2.0794726004739416e-11  -1.1859780926652938e-11  -1.9942625331235294e-11  -1.7971804021404734e-11  -2.5481024263622180e-12  -1.7707833316578372e-12  -1.0523355785538939e-11  -9.0556677487333092e-12  -1.3479297281736136e-11  -1.3665198291344996e-11  -1.1812329464499854e-11  -2.0765442972865108e-11  -2.4109596119388499e-12  -2.5412032907216665e-12  -2.0001941632699328e-12  -2.2062169102845386e-12  -6.2386808195308638e-12  -2.0135231929430374e-11  -1.9990517737537574e-11  -4.2660822277738593e-12  -4.0961675271672464e-12  -6.5944949070851680e-12  -3.4891014866975510e-12  -1.5029188842380388e-11  -1.2695286282384864e-11  -2.1625750477925634e-12  -1.7620365727537344e-11  -1.9093802729840915e-11  -1.3522106481793740e-11  -8.1070270994521152e-12  -1.7702310514516768e-11  -3.0354986765959486e-12  -6.5405717037456140e-12  -5.2327084937535567e-12  -1.8046029252377413e-11  -1.6748585742917072e-12  -2.0698611064880354e-11  -4.9771374285194811e-12  -1.2810042212204747e-11  -1.8440067740429997e-11  -2.2283367073337985e-12  -2.1412433617234775e-12  -2.0693040693431162e-12  -1.3749370273944262e-11  -5.1490182543013457e-12  -2.0801782386663151e-11  -2.0718181066338745e-11  -4.1334094251129384e-12  -3.2651188289384927e-12  -2.5945781971722720e-12  -3.7142620086825368e-12  -1.7333251342552959e-11  -1.1910016889676344e-11  -1.9264698069881056e-11  -4.3361715097442124e-12  -1.9694391230345932e-11  -1.8892520672838920e-11  -2.5322052699606488e-12  -2.0647626040804177e-11  -1.8506379588500602e-12  -1.8590167720477593e-12  -4.9377491890918917e-12  -4.0297585361561041e-12  -2.0664888327141787e-11  -1.3051844756494964e-12  -1.3112004580566012e-12  -2.0789956870815347e-11  -2.0756004314868476e-11  -2.0753285612170027e-11  -1.5165205361077839e-12  -1.5360576508050419e-12  -1.4462854216368162e-12  -3.3435276203933987e-12  -4.6986642626217641e-12  -2.6828109422205211e-12  -1.3701416443103456e-12  -2.0672858322509246e-11  -2.0809940968254833e-11  -2.6983002592659101e-12  -1.8932578922654258e-12  -2.9367505038651018e-12  -2.3593944899472424e-12  -2.3094117898444376e-12  -2.0507755986273502e-11  -7.8792678023414851e-12  -1.4365917575223902e-11  -2.0410500377939922e-11  -1.7191790565580480e-12  -1.3060529384098607e-12  -1.2873259246835323e-12  -8.2954662385430314e-12  -4.6694712823073033e-12  -2.0270013274771188e-11  -2.0232031669514330e-11  -2.2846260857568981e-12  -3.0610633142715933e-12  -7.5188119475108951e-12  -1.7853325993963701e-12  -1.2251805588476569e-11  -1.9419967389897258e-11  -1.9704487642465898e-11  -1.4882369749022188e-12  -2.4930627301257824e-12  -1.4772253960181978e-12  -2.0596552019824506e-11  -1.5498320825453393e-11  -1.2889570378453325e-12  -1.0206141247399255e-11  -1.6609296813079260e-11  -5.5499430098784556e-12  -9.8541316425619345e-12  -1.6618359411837616e-12  -2.0700625754196502e-11  -1.7986255534690611e-11  -1.6950768305346680e-11  -1.5614733731431570e-12  -1.6655827383742734e-12  -1.2333680454548383e-11  -1.9604716293363221e-12  -2.0457083020955151e-12  -1.5045544201140400e-11  -1.8322277880685826e-12  -2.0034596335360667e-12  -1.8299018949915128e-11  -5.9696322771198078e-12  -2.0707019519677626e-11  -1.5624293652917426e-11  -1.0831940784644024e-11  -7.5604714975637173e-12  -8.1134937524685304e-12  -1.9561483232880691e-12  -1.9104397490933118e-11  -1.5754111401039232e-11  -1.3579255747179703e-12  -1.2811348029968743e-12  -2.0648381958571746e-11  -2.0659519702645279e-11  -1.0563372214900179e-11  -4.2644817311434436e-12  -2.2815504631955401e-12  -2.2144335076350098e-12  -1.5837708804608907e-11  -2.0559013862583205e-12  -1.7134552877917200e-11  -2.0669691313552919e-11  -2.0334920451510339e-11  -9.5615175874366492e-12  -1.8064041291121502e-11  -3.2687529413322028e-12  -1.1799048346061102e-11  -1.4527731680608264e-11  -1.0032742949056008e-11  -5.0236666990385328e-12  -2.0489395731631069e-11  -1.2368342631840960e-11  -5.3951176163514401e-12  -8.4786844281319450e-12  -7.6524676090335815e-12  -1.6777720228709740e-12  -1.6613717569435252e-11  -1.9518810318663372e-11  -1.7597486538673953e-11  -2.0396750052648860e-11  -2.0729255088970673e-11  -1.3939607659582364e-12  -1.8357467534064451e-11  -2.2864065117573297e-12  -2.7247791533286915e-12  -2.0815954935137550e-11  -1.2962203899925737e-11  -9.7201360713340034e-12  -8.0736100533740996e-12  -9.9681765537249555e-12  -1.9628588665442719e-12  -2.9482807430651347e-12  -1.5931165874662703e-11  -7.0029036201455452e-12  -1.4016065357250851e-11  -1.8672175400631031e-12  -1.5910133581139407e-12  -1.4636199533428967e-11  -1.7834755822709170e-12  -2.0247932360521422e-11  -1.8729192620957011e-11  -1.1249516968308937e-11  -1.3182058990337437e-12  -2.6239493184819464e-12  -2.9560760113959528e-12  -3.9612303492298838e-12  -1.4753665457997346e-12  -1.9486629677542264e-11  -1.8648600788692265e-11  -4.1664396057883958e-12  -8.9510869801792850e-12  -1.4779609582670127e-11  -2.0551055943320920e-11  -1.2186973815884461e-11  -1.8901313116311442e-11  -1.0210543608693739e-11  -1.9871422672463867e-11  -1.7420641945397693e-11  -1.6261738343966574e-11  -2.0122471842829020e-11  -9.1405965203321112e-12  -1.4197698821037983e-11  -1.2866203292840707e-11  -2.5431927382234892e-12  -1.5542190482242717e-11  -2.0687344383325978e-11  -2.0799078816180063e-11  -1.6204188962385109e-12  -2.2643075758570507e-12  -2.0545998591365372e-11  -2.1490465095167881e-12  -1.9286849639654388e-11  -2.5355261702714564e-12  -1.3967047589535348e-12  -1.9586851666653043e-11  -7.8357194156676067e-12  -1.8081235435184114e-12  -1.2974433307017107e-11  -1.1293890848170454e-11  -1.2140562522231168e-11  -2.2841221362301669e-12  -2.4558613006872570e-12  -1.4480381394258044e-12  -1.8195044209151520e-11  -1.5026788208230188e-11  -2.0439384334587403e-11  -5.4855741069628142e-12  -1.4280421179129234e-12  -2.0592884614995665e-11  -3.9096466717696348e-12  -1.0419993181650521e-11  -1.4491830366290553e-11  -1.1651818739034195e-11  -1.6484073587328886e-11  -2.0442229921091599e-12  -1.6652589523287720e-11  -1.5709691663269128e-12  -1.6014298138056677e-12  -1.7449818982422313e-11  -2.0817215119379928e-11  -1.3426628481767139e-11  -2.0307992768416895e-12  -9.5123875180724502e-12  -1.7014045861604236e-12  -2.8314800675175302e-12  -3.2669940685891616e-12  -2.3366249913953388e-12  -2.2150304169686974e-12  -2.2066486449846090e-12  -1.8384457946253782e-11  -1.9433970951234587e-11  -1.6127089483161395e-11  -2.6432565489984610e-12  -2.0526777733441413e-11  -1.6248435412583705e-11  -1.3255576104202257e-11  -2.0799023783296681e-11  -1.5920757503627293e-11  -2.0159484546755561e-11  -3.8204845337436558e-12  -2.3822998247128435e-12  -1.5700790947717722e-11  -2.0755560721606042e-11  -1.8429906650530818e-11  -2.1189863721610305e-12  -4.2112404296994582e-12  -2.7487802719830385e-12  -1.2013452898177623e-12  -1.8641403047134875e-12  -2.3983350322839695e-12  -1.6910544927982506e-11  -2.0291432092272803e-11  -1.0472850643311477e-11  -1.6589351284896557e-12  -3.2574501594229670e-12  -8.2927872160760850e-12  -2.5998716212268229e-12  -1.2070395903072127e-12  -1.2719896134862052e-12  -2.0706469314686824e-11  -2.4520824465018851e-12  -2.0032221287615830e-11  -1.9854079027570719e-11  -1.9792937991097411e-12  -1.6786809419358305e-11  -2.4726738563531324e-12  -2.0350279666064049e-11  -2.8827068892596476e-12  -1.4372469251122904e-11  -1.9748996669797519e-12  -1.9919085192259511e-11  -2.0492531499128994e-11  -2.0645264349984548e-11  -2.0671903694866932e-11  -2.3629264491635309e-12  -2.5337219067165657e-12  -7.8680522977736542e-12  -1.3661424054430504e-12  -2.0804604590675795e-11  -2.0225382257061117e-11  -2.5199511193890431e-12  -2.0996571945919020e-12  -6.7019711586270695e-12  -2.0606924264279106e-11  -5.6245793103264439e-12  -1.5464316611129230e-12  -2.2885733207472925e-12  -1.2082787972811968e-12  -1.5936903611280812e-12  -1.5921547058297740e-12  -1.7279273373052698e-12  -3.0408732899382041e-12  -4.4992946623182797e-12  -2.4498535243851949e-12  -1.2688410783062113e-12  -2.0747109281264725e-11  -1.5405229180997880e-12  -1.5140900569563190e-11  -1.5165298430471713e-11  -2.5024102464640070e-12  -1.9451456776651598e-11  -1.9722654313562093e-11  -3.9716661731197256e-12  -6.5350949731124730e-12  -8.9849370041685195e-12  -3.2527199023023561e-12  -3.4432035400630601e-12  -1.3755441236368479e-12  -2.0794033891238974e-11  -1.9656809440844372e-11  -2.6146320507991588e-12  -7.0124309840509775e-12  -2.0808278865955326e-11  -1.4426086649980282e-12  -3.9578461312985400e-12  -5.5612566633927470e-12  -4.8876138544196723e-12  -1.9887554893769316e-11  -1.3050977364218800e-12  -7.5298253136401644e-12  -1.2607861693862022e-11  -1.2638800300980162e-12  -2.0752400749354170e-11  -2.0637360440259425e-12  -1.9286614518640443e-12  -2.0124753822272231e-11  -8.8316585825638093e-12  -1.2375103127182374e-11  -1.8364439322865762e-11  -5.2956099271415175e-12  -1.1810514979406536e-11  -1.8511527245790145e-11  -1.7690430452623701e-11  -1.5339272253797711e-12  -1.2521604203781542e-12  -1.9830085310807944e-11  -1.5229310741914600e-11  -2.6212089316690565e-12  -2.1128492174563210e-12  -3.5369423472859847e-12  -1.1300979122604200e-11  -1.3875229829108944e-11  -1.7306811132884647e-11  -1.3617540053321480e-11  -1.6726216810509841e-11  -5.6678966827237140e-12  -2.4651508541501008e-12  -1.8558516258162174e-12  -1.8201000853537445e-12  -3.1322042022135312e-12  -1.7273873555119715e-11  -2.9594055836221988e-12  -2.5726242627229874e-12  -2.6147549330033020e-12  -4.2985692986091228e-12  -3.0478145073612155e-12  -1.2659761994023594e-12  -1.2030490066322950e-12  -1.3870750742072130e-11  -1.7065356546666868e-11  -4.8626516169633505e-12  -1.7864917835127668e-11  -4.2569234929522633e-12  -1.1363741168476517e-11  -1.4184692351035894e-12  -2.4157937940255712e-12  -6.3636652356961382e-12  -1.4185891508209699e-12  -7.3189225914887028e-12  -1.9583341508287864e-11  -1.3794342466394905e-11  -4.6155610032243871e-12  -7.1642068453514336e-12  -2.3734966186317089e-12  -2.0719808139603572e-11  -2.0776390237018822e-11  -2.5697477259984328e-12  -2.5852781463110921e-12  -9.2325925622005156e-12  -2.1979308557849072e-12  -1.0159586335453168e-11  -2.9971354560168355e-12  -2.0738085191349346e-11  -1.2586052430278201e-12  -6.3692290827315883e-12  -8.0675867420971476e-12  -2.1841701753479341e-12  -4.0584356316985451e-12  -1.8978542110929538e-11  -2.4196743210435584e-12  -1.8272824209700234e-11  -2.6220377113203333e-12  -1.4782477285094527e-12  -1.6168250342009400e-12  -2.4332857907060345e-12  -1.6055883304457741e-12  -7.9596038507727450e-12  -1.9359402117967002e-11  -2.0778791975696117e-11  -2.0636301369562671e-11  -2.0092057991077562e-11  -1.3136731737507004e-11  -1.8941729681455621e-12  -1.0161285921591931e-11  -1.4147006989020265e-11  -1.7945728705311301e-11  -3.6003542190102738e-12  -1.4908759883089222e-12  -1.3105488311544288e-12  -2.0740919753610569e-11  -1.6346350257676387e-11  -2.0592910912567462e-11  -1.7187504156756521e-12  -2.3134304206364979e-12  -1.4056610915969729e-11  -2.0594056551971812e-11  -1.6417769369301284e-11  -2.0629226106535893e-11  -2.0540655281828859e-11  -2.0574798583188586e-11  -1.9106737321349311e-11  -2.0590827352241984e-11  -1.7852037730323989e-12  -1.8310235464123489e-12  -1.9642940640072501e-12  -1.2199535663611805e-12  -1.2734591317724653e-12  -1.4281521523778989e-12  -1.4266023551071805e-11  -1.5713950192921000e-11  -1.6915753414765903e-11  -2.0609231594236648e-11  -1.0101861926778536e-11  -2.4875530963709103e-12  -1.7131265330429723e-12  -2.0426918404803957e-11  -2.0522907205218684e-11  -2.5822566860996802e-12  -2.0781528801102579e-11  -1.2464724514099789e-12  -2.5885000822303552e-12  -2.0844912792491219e-12  -3.4528283431362166e-12  -5.2394459933269292e-12  -1.9443683122010555e-11  -7.3394595281562090e-12  -9.6139927436094569e-12  -1.1314518215475006e-11  -1.8172628025961537e-11  -2.0450744570078536e-11  -7.6658923968417953e-12  -2.4125497492986697e-12  -5.2305342141838525e-12  -1.2249635443851773e-12  -1.7486869577862868e-12  -2.0709710714361477e-11  -1.8661426029314453e-11  -2.0673941189552636e-11  -2.1571976377301355e-12  -2.0690156207419543e-11  -5.6871205775906291e-12  -8.8702193621478127e-12  -6.4762042604176583e-12  -3.8436215468970022e-12  -2.6035533559470219e-12  -1.0270532947859765e-11  -8.3464840424705773e-12  -2.0575367732104702e-11  -1.6001790951639486e-11  -2.6220639244328725e-12  -2.0701500040114622e-11  -1.8070229789773659e-11  -1.8609386701721588e-11  -1.9003448162450058e-11  -1.7042579072956896e-11  -9.8479492644156924e-12  -7.6352385221774716e-12  -1.4558232729618419e-12  -1.6668218108295285e-11  -2.0373379090364149e-11  -1.6850753134268305e-12  -9.7706755065202249e-12  -1.4552920020308622e-12  -1.8479686396754502e-11  -2.0604229682554422e-11  -1.1636165873426818e-11  -1.3335191673907456e-11  -1.2168004098308519e-11  -2.0522055489249280e-11  -2.1423344974645860e-12  -1.3618386269207463e-11  -1.3310971641519136e-11  -1.7169618392701312e-12  -1.3773992664855797e-12  -1.2552455517681963e-11  -1.5111653460632965e-12  -1.4414851518568197e-12  -1.7909124012606415e-11  -2.6851837262410987e-12  -4.5853242283514613e-12  -4.0912046189170313e-12  -4.4179638155368455e-12  -2.8122630496227379e-12  -1.9382789812824938e-11  -1.9641006686832909e-11  -1.9305280154939616e-11  -3.1812915669748381e-12  -2.5854731981920810e-12  -2.8043670501222761e-12  -2.2474282570395926e-12  -2.0769065411030970e-11  -1.7536059728049199e-11  -2.0454668086335591e-11  -1.9826681378431755e-11  -2.8412446739028152e-12  -2.0152630986797987e-11  -2.0277944936433027e-11  -2.0563629044084603e-11  -3.3340628028602141e-12  -1.8201827506617380e-12  -1.7667684310771585e-12  -2.0662467672812359e-11  -2.0396350528192708e-11  -1.8813725466359989e-11  -1.9035215666315868e-11  -1.9547928696301727e-11  -6.6943894232509417e-12  -1.5013942994564244e-12  -2.0809914393549248e-11  -2.0781520061770620e-11  -2.0802394975123175e-11  -2.0785723175299534e-11  -2.0803859468137727e-11  -2.0010040783492362e-11  -8.2312667836612116e-12  -2.1166755221620714e-12  -2.4468721157000298e-12  -1.2703988107171134e-12  -1.9024924196971233e-12  -1.9298169919145571e-11  -1.7847992066260905e-11  -1.6122317924876564e-11  -5.9545582174019840e-12  -1.6594755364388238e-12  -6.7950649887540696e-12  -2.2049714881959195e-12  -1.9217658083049009e-11  -1.1228405546940417e-11  -1.7392954115220121e-12  -1.230828