<?xml version="1.0"?>
<VTKFile type="UnstructuredGrid"  version="0.1"  >
<UnstructuredGrid>
<Piece  NumberOfPoints="6486" NumberOfCells="12696">
<Points>
<DataArray  type="Float64"  NumberOfComponents="3"  format="ascii">0 2.5 0  0 0 0  2.5 0 0  2.5 2.5 0  1.25 0 0  2.5 1.25 0  1.25 2.5 0  0 1.25 0  1.25 1.25 0  0 0.625 0  0.625 0 0  0.625 2.5 0  0 1.875 0  2.5 0.625 0  1.875 0 0  2.5 1.875 0  1.875 2.5 0  1.770833333333333 0.7291666666666666 0  0.7291666666666666 1.770833333333333 0  0.9375 0.625 0  1.875 1.5625 0  0.642361111111111 1.163194444444444 0  1.341594827586207 1.883979885057471 0  0.46875 0.46875 0  2.03125 2.03125 0  0.3626104797979798 1.513178661616162 0  1.381740196078431 0.4564950980392157 0  0.9375 2.172619047619047 0  2.172619047619047 0.9375 0  2.096354166666667 0.4036458333333332 0  0.4036458333333333 2.096354166666667 0  1.684027777777778 1.163194444444444 0  0.3418803418803419 0.8693910256410255 0  1.642742622813391 2.162164207604464 0  1.275619849389031 0.8465650753054845 0  0.9136284722222221 1.434461805555556 0  1.732437511238546 0.3406962303960658 0  0.9714402568595876 1.029779313093998 0  1.52281746031746 1.485615079365079 0  2.1875 1.71875 0  1.06819722569879 0.2997236128493951 0  2.136114211309524 1.303478422619048 0  0.3125 0 0  0 0.3125 0  2.5 2.1875 0  2.1875 2.5 0  0.3200021620376328 1.192323085056694 0  0.6738456129277992 0.8304377375553881 0  1.757891808928991 1.861952730357003 0  1.5625 0 0  0.9375 0 0  0.3125 2.5 0  2.1875 0 0  2.5 0.9375 0  0 0.9375 0  0 1.5625 0  0.9375 2.5 0  2.5 0.3125 0  0 2.1875 0  1.5625 2.5 0  2.5 1.5625 0  0.7448220909826522 0.3003573636608841 0  1.027298850574712 1.871151477832512 0  1.331260495098891 2.197262878816185 0  1.207917681892289 1.582765010956622 0  0.4339993447432606 1.801186844743261 0  0.6337298768939392 1.443093039772727 0  2.049851190476191 0.6826636904761904 0  0.6584821428571428 2.219122023809524 0  1.89575676467455 0.9798457973793544 0  1.437570562095628 1.059380588255917 0  1.502090052505845 0.6987070896496241 0  0.2040860661083546 1.705323965099331 0  0.2083333333333333 0.46875 0  0.5070952039991439 0.2211150679997147 0  0.6916302856529919 0.5813591430410241 0  2.265625 1.953125 0  2.2265625 2.2265625 0  1.886424081252096 2.243391360417365 0  1.40625 0.202164758520858 0  0.2269345238095238 0.2269345238095238 0  1.152730869673694 0.5225850378741401 0  1.885631899587912 1.312095130148776 0  1.614808884009367 0.9049784971014416 0  1.890095442220658 0.5126535558463003 0  2.323168682795699 0.46875 0  2.268811725689575 0.2304742875213018 0  0.6002389442105756 1.967426444210576 0  0.1768313172043011 2.03125 0  0.2311882743104251 2.269525712478698 0  2.03125 0.176831317204301 0  2.280262553344767 0.6954945504579233 0  1.979219539285994 1.809922269642997 0  2.336309523809524 1.09375 0  1.09375 2.336309523809524 0  0.9314042474388009 1.662973812215543 0  0.1634067999087722 1.40625 0  2.337090640094896 1.40625 0  1.141616997467638 2.069311773587991 0  0.46875 2.338939559681489 0  1.542440307908715 1.734944797244472 0  1.556713687786879 1.956977865354753 0  0.8264238995344066 1.975424467820646 0  1.466326331454725 1.275271369760862 0  1.655675324257095 0.5444159974393489 0  0.3385416666666666 0.6479255698005697 0  0 0.78125 0  0.5236073939200119 0.984090461540625 0  2.091665741047893 1.519793517904215 0  1.71875 2.5 0  0.5356538886262603 1.623137930505009 0  0 1.09375 0  0.1932884281517095 1.015625 0  0.8569313582417669 1.2198915584249 0  0.8876981284879677 0.8329884081524883 0  1.115618488474214 0.7219586973356271 0  1.186950366204949 1.043465130075318 0  2.057459118787237 1.110823087309335 0  1.830651283878689 2.049810069572418 0  1.689107969301489 1.367247437031697 0  0.4921048768039656 1.298643370653124 0  0.8213975694444444 2.336309523809524 0  2.03125 2.5 0  1.049729400480002 1.283723261332814 0  1.308101375801673 0.6489479469700392 0  2.5 2.34375 0  0.4968777175037714 0.7562964879736076 0  1.40625 2.5 0  1.501347663534097 2.307027627307738 0  1.602813712048603 0.1926218191360736 0  0.8393082906308107 0.463778306132633 0  1.682663349152719 1.598471865581041 0  0.7774174680851571 1.560004941327907 0  1.554204170364662 0.3898593897892066 0  1.842184459051087 0.186443880058197 0  1.358107417651776 1.696381759610015 0  1.18859291992392 1.77598670078022 0  0.1875331222687418 0.7609599743339348 0  1.339536743965101 1.422080365801479 0  0.7788179348750389 0.9955343414928611 0  0.9062978492805438 0.1919636509126373 0  1.256007360640958 0.3160320559396114 0  1.09375 0 0  1.174986727221844 0.1594990293443933 0  2.34375 1.796875 0  2.318026474511116 1.589177949022232 0  2.34375 2.5 0  1.672742954892153 2.332882724550692 0  0.2683637361947215 1.874801596909639 0  2.174770749820102 0.5581009131310781 0  1.443279522965991 0.8870068372898454 0  0.3385416666666667 0.3571428571428572 0  0.78125 0 0  2.060421048269335 2.314363248763811 0  1.088078737088509 0.8967352118723447 0  1.087825368444708 1.454931510884769 0  2.018308232129541 0.8548495425854904 0  1.943987311736842 0.3246298523011434 0  1.71875 0 0  1.85337849796276 1.144833312386208 0  2.3486328125 2.1044921875 0  1.407588788651747 2.042968789119587 0  2.336309523809524 0.865366648092144 0  2.34375 0 0  2.5 0.15625 0  0.15625 2.5 0  0 2.34375 0  0.1638044648294291 1.242263417405867 0  0.356216654757926 1.032569427322806 0  0.3188217956111817 1.355736727000647 0  0.5924956460852111 0.36112522004736 0  0.6594216488965849 0.1603472116132387 0  1.841804599497131 1.72214349266521 0  0.15625 0 0  0 0.15625 0  2.115898634821499 1.894570904464496 0  0.7821877980253907 0.7129993435924866 0  1.003820447087786 0.4516053462784233 0  0.477562948779147 1.138333049293613 0  0.719493678605015 1.305655360135975 0  0.9772457618587566 2.020350128938537 0  0.8764738248887107 1.826219722709673 0  1.254787875123819 2.339010653832026 0  2.343597354852534 1.249982759769001 0  0.78125 2.5 0  0.46875 2.5 0  2.5 1.40625 0  1.09375 2.5 0  2.5 0.78125 0  2.5 1.09375 0  2.03125 0 0  2.5 0.46875 0  1.40625 0 0  0.46875 0 0  0 0.46875 0  0 1.40625 0  0 1.71875 0  0 2.03125 0  2.5 1.71875 0  2.5 2.03125 0  2.005424054645407 1.653223486966518 0  0.1538730573856537 1.559850281736677 0  2.33984375 2.33984375 0  1.166539506212474 1.922878979538754 0  0.3914885633949916 1.65887232812171 0  0.5795503163042564 1.766243562569382 0  0.399533125920212 1.946786875081388 0  0.7866324979014098 2.127719094551316 0  0.3654683023546834 0.1495701132219454 0  0.1527388747131078 0.6116379440619215 0  2.013737577140188 1.391056634712135 0  1.17635437372994 2.213329084238133 0  1.737118141866284 1.010577140843115 0  2.200707118087222 1.164723314085963 0  1.697018908736685 1.993548551451517 0  0.5387621649009668 0.6070503962352419 0  2.032805785855952 0.5330427622570983 0  1.082699501358059 1.667818725183932 0  1.503819781540653 0.5468420196858188 0  2.015409142866072 2.175941657590429 0  1.752057611265444 0.869642097111018 0  0.612251684107783 2.356045720700959 0  1.902817102342857 0.6607642211999982 0  2.159616561739693 0.7867739969338844 0  0.5120038350106624 2.197302352398502 0  1.888200216011548 1.919501662489862 0  1.495909909726654 2.16028358757309 0  0.489139876703609 1.443203008943564 0  0.8819175670410521 0.3301172743913011 0  1.882591144370812 0.8155965192707721 0  1.133979796994841 1.172526771862882 0  2.206217447916667 2.084147135416667 0  2.20361328125 2.36279296875 0  1.395746985657004 1.556054166359645 0  1.704383111516207 1.734750450338683 0  0.9575737847222222 2.36274223823052 0  1.035150984253136 0.1302833343179028 0  1.383966125325753 0.7651479963479179 0  1.64003252158672 0.6824316405528895 0  2.22550785055421 1.487078576356817 0  1.760964431499756 1.48495222505201 0  1.276460980673788 2.004207003584658 0  0.1341477688427096 1.828777507920502 0  1.542261434180652 1.155296658359034 0  1.334627911613854 0.9696897472490321 0  1.30794231473696 1.119420615785191 0  0.7028260459857245 0.4438906910721139 0  1.625757433094055 1.84268057552138 0  0.9818707849053143 1.165603626132254 0  2.0086489901463 1.243134585689553 0  1.934584460420609 2.374094051915812 0  1.798434376789567 2.38671361912528 0  1.206314791201715 1.382064292497919 0  0.6333752893366955 0.7023738550008095 0  0.7796219811205605 1.42573253164258 0  1.564399711917382 1.026040828857629 0  0.3385416666666666 0.4889012896825397 0  0.1041666666666667 0.390625 0  0.989112246382566 1.543537365516289 0  2.025724425454636 0.9846960595520872 0  0.6602885475034063 2.086117390485779 0  1.607130551925032 1.267198646640915 0  0.1317864544877056 0.8896173683400176 0  1.755387840017567 2.230364320056445 0  1.301540702984401 0.1216289692748247 0  1.433170657577442 0.3331052752740999 0  1.500459610550388 0.113513924782439 0  0.6494291520606965 1.029586599619295 0  1.010146149868299 0.794897284196169 0  0.3700844198238017 2.235390157870766 0  0.3360891767780704 2.36656279435396 0  1.876856241037701 1.437150669863757 0  1.778674102957329 1.245979347269706 0  0.5472829890977179 0.1005517127039925 0  0.4669074189005698 0.3416784232954367 0  1.472765289289269 1.850899166481903 0  1.555853593327178 1.608452097912802 0  0.6708955559113426 1.646561631116984 0  0.8164699620322933 0.5924479455478063 0  0.3167738989468366 1.758696809749795 0  0.2788007305565096 1.605499483471246 0  0.7821720982350511 0.181524936294752 0  1.376812251214195 2.313340247908297 0  1.785652202614777 0.5962261755537186 0  1.761467296310972 0.4679567244718574 0  2.2265625 1.8359375 0  2.3828125 1.9140625 0  0.5279531607054191 2.071552361614785 0  2.397573269551114 0.234375 0  2.383578172599618 0.3589298466020009 0  0.1024267304488855 2.265625 0  0.1164218274003825 2.141070153397999 0  0.2696857594953064 2.135405441512016 0  2.164961300137334 0.1375322943529536 0  2.137757548369486 0.2724194778647587 0  2.238873711826398 0.3626419179496562 0  0.1001414910226386 0.234375 0  0.2176339285714286 0.3478422619047619 0  0.2503620791333544 0.1061694061057066 0  2.336445461915368 0.1250451055247424 0  0.2154004640409726 2.3918124
[...]
<PointData  Scalars="f_49-2"> 
<DataArray  type="Float64"  Name="f_49-2"  format="ascii">3.2888110738291404e-16  1.5304631725966987e-16  1.3537696325208212e-17  1.2687821960160541e-15  9.3508352752498651e-17  1.6631573153040362e-17  3.5311404644075573e-16  3.9437784285190804e-16  3.2837967679978588e-15  2.2904863747418437e-16  1.3495780100589577e-16  3.4047880257484286e-16  4.2185335967222285e-16  1.2685599424803423e-17  4.4579685304114276e-17  5.4553821951272597e-17  1.6690424111641587e-15  5.9550572858467686e-17  4.3048850496473998e-16  1.4880805082383676e-16  5.1362080484822810e-16  1.3219860991385196e-15  2.5271326066874824e-15  9.2542641525494780e-16  2.6012478928808413e-15  4.2191847347688298e-16  8.7920575527632675e-17  4.0394348048139071e-16  3.2271291568768431e-17  3.2076950417030303e-17  4.0620478884972183e-16  9.6803540933406323e-17  4.6960023479149118e-16  2.6392355804183174e-15  1.1632046960452214e-16  2.1958717968217559e-15  5.6112497717596873e-17  3.7825932385279075e-15  2.8053111110494816e-15  1.6045000794351668e-16  1.0899533935185149e-16  3.8351338976772171e-17  1.4608369056337051e-16  1.2703567669534051e-16  4.4793292879013372e-16  2.9738183310224325e-15  3.8586603219119569e-16  5.1347565587513354e-15  3.8905432577364123e-15  6.6510003487797384e-17  1.1579425029188426e-16  3.2855177582977809e-16  2.4366179231341659e-17  1.3462669438167713e-17  3.3889098013921733e-16  4.2508886872707824e-16  3.4560408404833402e-16  1.2207027108261358e-17  3.8992606076600171e-16  4.6593857438059420e-16  1.8651433556903650e-17  1.2854609218056091e-16  5.1004322900643897e-16  5.3758206906079766e-16  4.7172395921787409e-15  4.2827707383631747e-16  4.4146375172170642e-16  3.6859077358563411e-17  3.9184243206689616e-16  5.1586301594387062e-17  1.8786218705055760e-16  7.9437035580121463e-17  4.2864441262052340e-16  2.8738933837567974e-15  1.3874464262960875e-16  4.9516475667343142e-16  4.6516922954852264e-16  2.0847923883875881e-15  3.7179473326073187e-15  8.1944217594026549e-17  1.2779579739674219e-16  1.0453824103312333e-16  7.6784246393910304e-17  7.3026651820001406e-17  4.6289557729575474e-17  1.9617002460965211e-17  2.2009283398277175e-17  4.2119247499973583e-16  4.0982155449085161e-16  3.7717693122481981e-16  3.5631949463287173e-17  2.2897966480524535e-17  1.3418229454578076e-15  2.3088946473002311e-17  3.8081316901629961e-16  6.7957541531607135e-16  4.1267897698001121e-16  2.5753149123841879e-17  4.5493889963421718e-16  3.6823084260198632e-16  4.9682776222180031e-15  4.1381165522917854e-15  4.2257438136363648e-16  9.7163710846473239e-16  6.7320153800072440e-17  3.0504130011741990e-15  2.8861754843956311e-16  1.5376954863883381e-15  7.3420813529415885e-17  8.8699652067167823e-16  4.2773897067407885e-16  3.7104303411524975e-16  3.5241955618981731e-16  4.4874954997397726e-15  1.5015500532091202e-15  1.2245685751532337e-16  1.1948244748733099e-15  4.0618917226069134e-17  4.2932687698556730e-15  4.0364210683552698e-16  4.0886360377706443e-16  3.7571515955856961e-16  2.7495217355173155e-15  5.7287821974341443e-15  9.3562649586091674e-17  8.6868292875513086e-16  4.8310105499115871e-15  3.6580747721642426e-16  6.8591740689606099e-16  6.4958036525387344e-17  1.2260332712454072e-16  2.2010379324242086e-15  4.9247012925306051e-16  7.3162198641726931e-17  4.6484933358726980e-17  5.0069383853574088e-15  1.8245650709251012e-15  2.9339280536753878e-16  4.2745073495764075e-15  5.5872350387100639e-15  1.1868839285006975e-16  9.6203077316597879e-17  1.0539854861814978e-16  1.0221815601443074e-16  9.0918706338914366e-17  3.5933770412875880e-17  2.2188704952669407e-15  1.4941378311624128e-15  4.2477353696201082e-16  2.7427662788882289e-17  8.9492978901560870e-17  6.8138448310222857e-16  1.2507313987995638e-16  3.5153301605199341e-15  5.7478005409865151e-16  4.7970489508538350e-15  4.2343803809251035e-17  4.1090251711702074e-17  5.5760910332684931e-17  5.7475143951394770e-17  7.1625895277627015e-16  1.5804732524348833e-15  2.0608970239499968e-17  1.9110642886243850e-17  1.3138402378299181e-17  3.2772254613976858e-16  3.5423328754733046e-16  3.9472655743181874e-16  3.6692837727285364e-16  4.0805066075964039e-16  1.3294919372557375e-16  1.3291392279407762e-16  1.7936566237247541e-15  1.5101700276073121e-16  1.5224504888504869e-16  9.2691046165505525e-16  9.8322459137147787e-16  1.1346398765495543e-16  4.4975143923080678e-16  1.0693015567822797e-15  4.2355909869062618e-16  4.4016442187104133e-16  3.9149077994472657e-16  2.4662790773046795e-17  3.4294982576533038e-16  3.3201514931022969e-16  1.7670765666198979e-17  3.4897044266824983e-16  1.3622778306735263e-17  1.5044282680115452e-17  3.5500668296517473e-17  1.2406541972635715e-17  7.6441767925626739e-17  1.4134245522153699e-16  1.7601525161702852e-16  4.1230108977488939e-16  4.2865301208760750e-16  4.1074140566648796e-16  2.5067059379843263e-17  1.6529501173974588e-16  3.5256103900743382e-16  4.2474138129571954e-16  1.7840853333246655e-15  7.5204566786984053e-16  4.2803028453242782e-16  4.2932404486523150e-16  4.2102733149088711e-16  4.0768834059981288e-16  1.4349928105100328e-16  2.6111944332425087e-16  6.3206628442989583e-17  4.1248740419595914e-16  6.4004016164121997e-17  3.1861672760800961e-17  4.6551666130326220e-15  2.7996409282882086e-15  3.7266010387649068e-17  1.7327978005081304e-15  7.8584893048887045e-17  3.5430175920592257e-15  6.1884764990515697e-17  3.6754714462575595e-16  4.7762502203449490e-17  3.0902139702862170e-17  3.9330858598533380e-16  3.0876383458136064e-15  1.3795963407902795e-15  4.1691933913452561e-16  1.2035498879291550e-16  5.0384486928642768e-17  3.7817105130823071e-15  1.4649190567573193e-15  2.7928072408148241e-15  5.0169162210426242e-15  3.4506346240532160e-15  3.7234706587237067e-16  1.1098381895286313e-16  8.9327347468522020e-17  6.8758680847820811e-17  3.9289546712303276e-17  6.6325786468263450e-16  8.8950286764699223e-16  4.2696053679011915e-16  1.9915581785985557e-16  1.6681969040044206e-16  9.0517193447106612e-16  1.3932398712819675e-16  4.8808350841990119e-15  5.6199259574857636e-15  4.8129901006209580e-17  3.0635182278054612e-15  1.9252705091262570e-15  5.3973159811484527e-15  3.3742829570215964e-15  7.9336057733472904e-16  8.8549244384028850e-17  3.5690755038159774e-15  7.7664753230151289e-16  1.8636082473244676e-15  4.1432848769246309e-17  4.0988078495062468e-16  3.3619277969276110e-16  3.1937288916104053e-16  2.9219591324831539e-15  8.9834661119164457e-17  8.2648870257244512e-17  7.2193770888881129e-17  3.3968121136404094e-15  4.0158118210977506e-16  3.8504052903651778e-16  3.5974658123091963e-16  1.7043719962758269e-16  9.4361297180313250e-17  1.3768586785281583e-16  1.5130828866632306e-16  4.5679175900070090e-15  3.7513288536208443e-15  4.3051127910796204e-16  2.0547661003078651e-16  4.2864444030906761e-16  4.2622021001561882e-16  1.2656365067241536e-16  4.5711646722961710e-16  5.7347459236125585e-17  5.6002018581810422e-17  2.9106449350076001e-16  1.5068667361220034e-16  4.1078617297124737e-16  1.5106985453230488e-17  1.7123999762058769e-17  3.7595847294237074e-16  3.9901038503749084e-16  3.9880032301503903e-16  2.7674429354208171e-17  2.9753908246635494e-17  2.5081897757766827e-17  9.6165101860357817e-17  2.0878385501561174e-15  1.4720196776390779e-16  1.7844964550027010e-17  3.5211658688710499e-16  3.9995682702098145e-16  1.4805798340713238e-16  5.6894868231099694e-17  1.1031208001340582e-16  1.0268028274832263e-16  9.4696984815900206e-17  4.1696974202769221e-16  1.3649258448880135e-15  4.1886840523910281e-15  4.1840374458939378e-16  4.1136393690270882e-17  1.8123420893393594e-17  1.7750146900685302e-17  1.0289325097735818e-15  3.4084201682511787e-16  4.2618586542699057e-16  4.2503820494289503e-16  7.6963578618473018e-17  6.8795500026895547e-17  1.2151068086344253e-15  4.8738646831174532e-17  2.2099708532639086e-15  4.5102728448607975e-16  5.8278474153208710e-16  2.9417609505274928e-17  1.2176944375971350e-16  3.0324936518691587e-17  5.0778335512583024e-16  3.7921074578974681e-16  1.9232309470391908e-17  2.6208192090614802e-16  5.7338838961956703e-16  4.1309526389591675e-16  2.0617528988201002e-15  3.9914455451792162e-17  3.6679740983211367e-16  4.1785949457690071e-16  4.0384477304453929e-16  2.1487659168808730e-17  3.0387581188141482e-17  5.6700698752755620e-15  6.1794661717839199e-17  6.8088534539721410e-17  4.0766664391823463e-15  5.0282343058180083e-17  2.8164509970163166e-17  3.4568829587620640e-15  5.9032977934385982e-16  3.6075394486459678e-16  4.4114182093501464e-15  6.5369165644221797e-16  4.1261126725250820e-15  2.3994691486926382e-15  6.5168721122271787e-17  4.2767345078324464e-16  3.8411549264466939e-16  2.0783298306249144e-17  1.9153878578787504e-17  3.7724611840158970e-16  3.4601090991253806e-16  1.4930006940841448e-15  1.9347944506983812e-16  4.4533269825797285e-17  8.6718567194668151e-17  3.2361033756224748e-15  7.3600341976187006e-17  4.1726569139774935e-15  4.1512654228554100e-16  4.3066992292383975e-16  2.7193974732714555e-15  4.1867242101412143e-16  1.3389475506127965e-16  2.5642935290582506e-15  5.1490994835574149e-15  3.5809466795980120e-15  3.4452435746511078e-16  4.4878622864112470e-16  4.6678243742530002e-15  4.7369320876192908e-16  2.9254444342312054e-15  1.6709586445155529e-15  4.4192153566051106e-17  2.0883016254293487e-15  9.3619177041775649e-16  3.2541836864135872e-15  4.7421340739784986e-16  4.1266283479554280e-16  2.5297959288616606e-17  8.8719126976776053e-16  9.5726245601183737e-17  1.3405879469466180e-16  3.9385513015927747e-16  3.2540004612265538e-16  3.8926449575230438e-15  1.1707012604179007e-15  2.7816060852614788e-15  6.3946307812299280e-17  6.4917409666064148e-17  4.6205740832003615e-15  1.8766577365034798e-16  3.4973165427718945e-16  4.7692200414980917e-17  3.6777728661115990e-17  5.4927594688959117e-15  3.8064278817270677e-17  7.3692588453584438e-16  4.2697702923733897e-16  4.8711170034208345e-15  1.5974615829869705e-17  1.0175295238597372e-16  1.0269626860694078e-16  1.5539452197053130e-16  2.6539651166659403e-17  4.2921069986761302e-16  4.2456168720490773e-16  1.6798881025456752e-16  4.8588228222489310e-15  1.0431120649006533e-15  3.3369692498040069e-16  4.8539245159084354e-15  2.7714581098352379e-15  2.3762611159728097e-15  1.4425990772822192e-15  4.2512919024756365e-16  3.9243227673074863e-16  4.2771204443938089e-16  1.9535556510838465e-15  4.2478457881164476e-15  3.4671740664805459e-15  1.2948154349092349e-16  5.4580861422654865e-15  3.6039234214476666e-16  3.8065925157417504e-16  3.5071097676369794e-17  9.5196704519389575e-17  4.1954882392899535e-16  8.1079955722753793e-17  2.3150963219379685e-15  1.2814026772848575e-16  2.2710535104758663e-17  4.2842404921380823e-16  1.7133945518328434e-15  5.0036139188158480e-17  2.4538973926854679e-15  5.6110093644356558e-15  3.7690600094645178e-15  8.5896084436760737e-17  1.1545717406374287e-16  2.1520092999640050e-17  2.9601642738152189e-15  3.6950934469431658e-16  7.0246260218511681e-16  3.5470189949934788e-16  2.6600205515867106e-17  3.4540115719156287e-16  1.6078774803111851e-16  3.0660261965627916e-15  5.6623087228275407e-15  2.9264546506740699e-16  5.0279506486191998e-15  7.3373091324006735e-17  3.9858736677366876e-16  2.9460103308289029e-17  3.3240527916084551e-17  4.1023658691496691e-16  3.8746687736503900e-16  6.7332649924880225e-16  7.2801364639582476e-17  5.6267263528630617e-16  4.0184237268408547e-17  1.2581098913150234e-16  1.2480079524569475e-16  1.0254433783792816e-16  9.0023601271097073e-17  8.9212413308489499e-17  3.1503753376941002e-15  1.6693324217701528e-15  5.2495765233852390e-15  1.4109126845997446e-16  3.3116094038605785e-16  3.7126791936076317e-15  2.9519962713817097e-15  3.7957147734562619e-16  5.6272740120789489e-16  5.9057394055738942e-16  1.5888645953088390e-16  1.0766625833191816e-16  2.0066473235611430e-15  4.0306035543100335e-16  4.4920577316687237e-16  8.0462757644071369e-17  1.9227202103914391e-16  8.3186727265720846e-17  1.3496363295405330e-17  2.8890740507392446e-17  5.5655602661228789e-17  3.9373412295989849e-15  4.2245046055655257e-16  2.0935491620838810e-15  4.0538933974748132e-17  9.8933073529645142e-17  1.8982494524243953e-15  1.4302941461737622e-16  1.2289919979273334e-17  1.6132597059406307e-17  3.6459975357250964e-16  1.1583646647417417e-16  4.2676140934810650e-16  4.2767375829642176e-16  5.8222464948128537e-17  3.2478985152882530e-15  1.1340451499399438e-16  7.8562497967848221e-16  1.1472704311700601e-16  5.4599209727804061e-16  4.7239336550446539e-17  4.2706280916771651e-16  4.1861125805692567e-16  3.5029386310398456e-16  3.5436586133795714e-16  1.0601460763935401e-16  1.2371174222934811e-16  1.5441199600029175e-15  2.2348592434526187e-17  3.9674216666078790e-16  4.2771384924925389e-16  6.5567119491136040e-17  5.7494979625636667e-17  8.0554580849473665e-16  4.1085658977413621e-16  4.3763089520959843e-16  3.2829261576784286e-17  9.6534521939516372e-17  1.3172194935630852e-17  3.8127620162288249e-17  3.7286148415300519e-17  4.6210221774212844e-17  6.7680430687418884e-17  2.2711472814260688e-16  3.8251241964613012e-17  1.3553112166639766e-17  4.1602239957257215e-16  3.0601800633733562e-17  3.6990687561413009e-16  3.8023602054805591e-16  7.2450253870174777e-17  1.9382529116207666e-15  1.2429032015347821e-15  1.5457784073287984e-16  5.8424041443222636e-16  1.3520723012264285e-15  1.0646832806484088e-16  1.0947410183386567e-16  2.0099733258118812e-17  3.9167341369473540e-16  4.7931059910876564e-16  1.1856606682562220e-16  8.8594737962648867e-16  3.8449254870001624e-16  2.2508409289991428e-17  2.9559699966699549e-16  2.8146019627511162e-15  5.9258139811553752e-16  7.8743477731082158e-16  1.5213675795958899e-17  1.1417613029680546e-15  3.1971020438759085e-16  1.6231485086828849e-17  3.6550483420138798e-16  7.3457131610164776e-17  6.3635450504729357e-17  1.1392344758423742e-15  1.0938682956291232e-15  4.1922972752930070e-15  2.8404744526930660e-15  3.2027063679069277e-16  3.2561817100790030e-16  4.2368607702667429e-16  3.9376521532644737e-15  2.9146532584789832e-17  1.6708084405978039e-17  4.3509882358215582e-16  4.7549967905471539e-15  1.3620709088323446e-16  7.4145182702513622e-17  9.1172121463352964e-17  3.9954450837472289e-15  3.4353973067685321e-16  5.2323221369125010e-16  4.4335157426589333e-15  3.9981183198626385e-16  5.4288827182378049e-16  1.0856814098843127e-16  3.2087803791262678e-17  5.1531348131342867e-17  1.3808122194717774e-16  4.0829347652227859e-16  1.2912095916835366e-16  1.3500893730681254e-16  1.3097666355885431e-16  2.3443416563902317e-16  1.3372461163315350e-16  1.8498356421099763e-17  1.4423201048345217e-17  5.4125342188878927e-15  3.2301762575420181e-15  3.0896390895094371e-16  4.1595650576929957e-16  1.4732255736471744e-15  3.1035311643283784e-15  2.6360002158922862e-17  1.1246686801402137e-16  6.0492535655251948e-16  2.3685674449542618e-17  8.8079807258134506e-16  1.7562594676914956e-15  3.3234571748328667e-15  2.5916476706030888e-16  8.9038754043082091e-16  8.3860144936706738e-17  4.2951522502199398e-16  3.8258242941441253e-16  1.5187070964525350e-16  1.5360995685580014e-16  1.6800766854956134e-15  8.6062332978877161e-17  1.6599867530443712e-15  1.4500837299545125e-16  3.9868667605361868e-16  1.4643331423998391e-17  1.1070059087442438e-15  2.8975183620368973e-15  6.7086805031355402e-17  1.6680798194288975e-16  5.9234196783561744e-16  1.0930468097992038e-16  2.1987516633345093e-15  1.4612792303693581e-16  2.3315186948466305e-17  3.5276085775615036e-17  1.1349240423611690e-16  3.5327812734754163e-17  4.2370499497957691e-15  4.2852218102882190e-16  4.0460183767892935e-16  4.1651115418929186e-16  4.6072865589324351e-16  3.4265756406158777e-15  5.5788445791813857e-17  2.7795436311805681e-15  5.6527774359993511e-15  3.8445519953448886e-15  1.1311948529938050e-16  2.5008449262188518e-17  2.0411285965516825e-17  3.9996233406667684e-16  3.9398229637870184e-16  3.9602996116008283e-16  2.2607913574047255e-17  9.8172545040253537e-17  2.6885925572377768e-15  3.4387270433595006e-16  2.9975406055664042e-15  3.4354079149142374e-16  3.2937468074909917e-16  3.5525516815246332e-16  4.2771793490846818e-16  3.4279513318274137e-16  2.1175001374571897e-17  4.8744988664979949e-17  6.0673619141404305e-17  1.5705159975243486e-17  1.7354878402876455e-17  1.8029513213692900e-17  3.5726176131516276e-16  3.8420828245665692e-16  4.0402361322923746e-16  3.5054680623784689e-16  2.5330358100314283e-16  1.2033571235439583e-16  4.0093473796104820e-17  4.1764789079541859e-16  3.2667153732512394e-16  1.4920531346824883e-16  3.7007009352076210e-16  1.2463141837564180e-17  1.3881121881499788e-16  7.2511735456151154e-17  1.4465530361505030e-16  1.3713975652247551e-16  1.3007626785345469e-15  6.4626270282220529e-16  1.1261647400085348e-15  1.6999885454131843e-15  4.2095696820093742e-16  3.9160806255208565e-16  2.0434490960812355e-16  3.3532486200098257e-17  2.7302461632252423e-16  1.2254633404951076e-17  4.9647787323145071e-17  4.4661761303720667e-16  1.3535668104669199e-15  3.5683323167608185e-16  8.1320304866081582e-17  3.7066743681072108e-16  7.8564815438533496e-16  4.8585682261538739e-15  1.9464414311455778e-15  1.3572403494420900e-16  1.4199238909341056e-16  4.7645806461861239e-15  2.1207476359487594e-16  4.1472707808926935e-16  2.3662456781210112e-15  1.0910958187573299e-16  4.1376129854305812e-16  4.1829199148542905e-16  4.2468524255229480e-16  4.2706879133132567e-16  4.0493322016941825e-16  2.6041613536752394e-16  7.5320578909413074e-16  2.8587947628093680e-17  4.8247507194757112e-15  4.4413601350411263e-16  3.3822282143067652e-17  5.1009381716143288e-15  2.1368276457702182e-17  4.2271847270294105e-16  4.3243751540457978e-16  4.8257592757169853e-15  3.9854100628651285e-16  4.2988489435622223e-15  4.2208047757355621e-16  8.2811081219499222e-17  4.6769212514222240e-15  5.7136695310541127e-15  4.3497636866052011e-17  2.4178621788061945e-17  3.1379444468323285e-15  3.2502200163185754e-17  2.6765828946792678e-17  9.7488364429773503e-16  7.2391665240904377e-17  2.4934521429634354e-16  1.5916459220008629e-16  2.5045091795725611e-16  5.7581938360013989e-17  4.2899726688105477e-16  4.2969429757343713e-16  2.2909186256683261e-15  8.5426027899834041e-17  5.8756799612936647e-17  6.2898297929849328e-17  4.7431675261929857e-17  4.0334953957196114e-16  4.1249062960602828e-16  5.7981538453260875e-16  4.2913111258081858e-16  9.6032180260479831e-17  4.2581529075170718e-16  4.2347423025412309e-16  4.8833011271984830e-16  1.0631507425024920e-16  5.5132994913641602e-17  4.9361518154819602e-17  4.0846930010258459e-16  5.4182533013506563e-16  4.2586185975239687e-16  4.2737670328644093e-16  4.2906370178296018e-16  1.0245362684195702e-15  2.7981673279257973e-17  3.9573297191450959e-16  4.0143151866033908e-16  3.9194256803300106e-16  3.9478396247734308e-16  3.8347930301376958e-16  1.1369679014843418e-15  1.6305399233684243e-15  7.9317983687972945e-17  4.4567833041664313e-17  1.7273678247610859e-17  3.4841389900974203e-17  9.6763433190308721e-16  5.2502994923031678e-16  3.8991498002115335e-16  5.8328926336912473e-16  3.7010036627092321e-17  1.2497288596626021e-15  8.7794335218106483e-17  2.0055791913296320e-15  2.8101413312231348e-15  4.3972849815120008e-17  2.9893082939433050e-15  3.9362705610293920e-15  1.9463012706685785e-16  3.3016846612999072e-17  3.4432947625579316e-16  4.1692953324640479e-16  5.3882792047430690e-15  1.3180021793242928e-15  4.0229173859784111e-16  4.3252259546892332e-15  4.5363258920229068e-15  4.2819185095847953e-16  2.0136277678561890e-17  1.0085243814895106e-16  3.3030327421756853e-15  4.2067202962233597e-16  4.1155331169508942e-16  3.8031159177969349e-16  3.5472615089369194e-16  4.1386459841522185e-17  3.4390420109543534e-16  4.2542973998012739e-17  1.9941594172557288e-17  3.2701517560311873e-15  4.0384314544341935e-16  6.7649164061782657e-17  2.2905336251705658e-15  3.2310722705901054e-17  2.8821447642079307e-15  3.7455120910303288e-16  3.8661773886916570e-16  3.9811084665782208e-16  3.7164727112258830e-16  1.7717444366758