<?xml version="1.0"?>
<VTKFile type="UnstructuredGrid"  version="0.1"  >
<UnstructuredGrid>
<Piece  NumberOfPoints="6486" NumberOfCells="12696">
<Points>
<DataArray  type="Float64"  NumberOfComponents="3"  format="ascii">0 2.5 0  0 0 0  2.5 0 0  2.5 2.5 0  1.25 0 0  2.5 1.25 0  1.25 2.5 0  0 1.25 0  1.25 1.25 0  0 0.625 0  0.625 0 0  0.625 2.5 0  0 1.875 0  2.5 0.625 0  1.875 0 0  2.5 1.875 0  1.875 2.5 0  1.770833333333333 0.7291666666666666 0  0.7291666666666666 1.770833333333333 0  0.9375 0.625 0  1.875 1.5625 0  0.642361111111111 1.163194444444444 0  1.341594827586207 1.883979885057471 0  0.46875 0.46875 0  2.03125 2.03125 0  0.3626104797979798 1.513178661616162 0  1.381740196078431 0.4564950980392157 0  0.9375 2.172619047619047 0  2.172619047619047 0.9375 0  2.096354166666667 0.4036458333333332 0  0.4036458333333333 2.096354166666667 0  1.684027777777778 1.163194444444444 0  0.3418803418803419 0.8693910256410255 0  1.642742622813391 2.162164207604464 0  1.275619849389031 0.8465650753054845 0  0.9136284722222221 1.434461805555556 0  1.732437511238546 0.3406962303960658 0  0.9714402568595876 1.029779313093998 0  1.52281746031746 1.485615079365079 0  2.1875 1.71875 0  1.06819722569879 0.2997236128493951 0  2.136114211309524 1.303478422619048 0  0.3125 0 0  0 0.3125 0  2.5 2.1875 0  2.1875 2.5 0  0.3200021620376328 1.192323085056694 0  0.6738456129277992 0.8304377375553881 0  1.757891808928991 1.861952730357003 0  1.5625 0 0  0.9375 0 0  0.3125 2.5 0  2.1875 0 0  2.5 0.9375 0  0 0.9375 0  0 1.5625 0  0.9375 2.5 0  2.5 0.3125 0  0 2.1875 0  1.5625 2.5 0  2.5 1.5625 0  0.7448220909826522 0.3003573636608841 0  1.027298850574712 1.871151477832512 0  1.331260495098891 2.197262878816185 0  1.207917681892289 1.582765010956622 0  0.4339993447432606 1.801186844743261 0  0.6337298768939392 1.443093039772727 0  2.049851190476191 0.6826636904761904 0  0.6584821428571428 2.219122023809524 0  1.89575676467455 0.9798457973793544 0  1.437570562095628 1.059380588255917 0  1.502090052505845 0.6987070896496241 0  0.2040860661083546 1.705323965099331 0  0.2083333333333333 0.46875 0  0.5070952039991439 0.2211150679997147 0  0.6916302856529919 0.5813591430410241 0  2.265625 1.953125 0  2.2265625 2.2265625 0  1.886424081252096 2.243391360417365 0  1.40625 0.202164758520858 0  0.2269345238095238 0.2269345238095238 0  1.152730869673694 0.5225850378741401 0  1.885631899587912 1.312095130148776 0  1.614808884009367 0.9049784971014416 0  1.890095442220658 0.5126535558463003 0  2.323168682795699 0.46875 0  2.268811725689575 0.2304742875213018 0  0.6002389442105756 1.967426444210576 0  0.1768313172043011 2.03125 0  0.2311882743104251 2.269525712478698 0  2.03125 0.176831317204301 0  2.280262553344767 0.6954945504579233 0  1.979219539285994 1.809922269642997 0  2.336309523809524 1.09375 0  1.09375 2.336309523809524 0  0.9314042474388009 1.662973812215543 0  0.1634067999087722 1.40625 0  2.337090640094896 1.40625 0  1.141616997467638 2.069311773587991 0  0.46875 2.338939559681489 0  1.542440307908715 1.734944797244472 0  1.556713687786879 1.956977865354753 0  0.8264238995344066 1.975424467820646 0  1.466326331454725 1.275271369760862 0  1.655675324257095 0.5444159974393489 0  0.3385416666666666 0.6479255698005697 0  0 0.78125 0  0.5236073939200119 0.984090461540625 0  2.091665741047893 1.519793517904215 0  1.71875 2.5 0  0.5356538886262603 1.623137930505009 0  0 1.09375 0  0.1932884281517095 1.015625 0  0.8569313582417669 1.2198915584249 0  0.8876981284879677 0.8329884081524883 0  1.115618488474214 0.7219586973356271 0  1.186950366204949 1.043465130075318 0  2.057459118787237 1.110823087309335 0  1.830651283878689 2.049810069572418 0  1.689107969301489 1.367247437031697 0  0.4921048768039656 1.298643370653124 0  0.8213975694444444 2.336309523809524 0  2.03125 2.5 0  1.049729400480002 1.283723261332814 0  1.308101375801673 0.6489479469700392 0  2.5 2.34375 0  0.4968777175037714 0.7562964879736076 0  1.40625 2.5 0  1.501347663534097 2.307027627307738 0  1.602813712048603 0.1926218191360736 0  0.8393082906308107 0.463778306132633 0  1.682663349152719 1.598471865581041 0  0.7774174680851571 1.560004941327907 0  1.554204170364662 0.3898593897892066 0  1.842184459051087 0.186443880058197 0  1.358107417651776 1.696381759610015 0  1.18859291992392 1.77598670078022 0  0.1875331222687418 0.7609599743339348 0  1.339536743965101 1.422080365801479 0  0.7788179348750389 0.9955343414928611 0  0.9062978492805438 0.1919636509126373 0  1.256007360640958 0.3160320559396114 0  1.09375 0 0  1.174986727221844 0.1594990293443933 0  2.34375 1.796875 0  2.318026474511116 1.589177949022232 0  2.34375 2.5 0  1.672742954892153 2.332882724550692 0  0.2683637361947215 1.874801596909639 0  2.174770749820102 0.5581009131310781 0  1.443279522965991 0.8870068372898454 0  0.3385416666666667 0.3571428571428572 0  0.78125 0 0  2.060421048269335 2.314363248763811 0  1.088078737088509 0.8967352118723447 0  1.087825368444708 1.454931510884769 0  2.018308232129541 0.8548495425854904 0  1.943987311736842 0.3246298523011434 0  1.71875 0 0  1.85337849796276 1.144833312386208 0  2.3486328125 2.1044921875 0  1.407588788651747 2.042968789119587 0  2.336309523809524 0.865366648092144 0  2.34375 0 0  2.5 0.15625 0  0.15625 2.5 0  0 2.34375 0  0.1638044648294291 1.242263417405867 0  0.356216654757926 1.032569427322806 0  0.3188217956111817 1.355736727000647 0  0.5924956460852111 0.36112522004736 0  0.6594216488965849 0.1603472116132387 0  1.841804599497131 1.72214349266521 0  0.15625 0 0  0 0.15625 0  2.115898634821499 1.894570904464496 0  0.7821877980253907 0.7129993435924866 0  1.003820447087786 0.4516053462784233 0  0.477562948779147 1.138333049293613 0  0.719493678605015 1.305655360135975 0  0.9772457618587566 2.020350128938537 0  0.8764738248887107 1.826219722709673 0  1.254787875123819 2.339010653832026 0  2.343597354852534 1.249982759769001 0  0.78125 2.5 0  0.46875 2.5 0  2.5 1.40625 0  1.09375 2.5 0  2.5 0.78125 0  2.5 1.09375 0  2.03125 0 0  2.5 0.46875 0  1.40625 0 0  0.46875 0 0  0 0.46875 0  0 1.40625 0  0 1.71875 0  0 2.03125 0  2.5 1.71875 0  2.5 2.03125 0  2.005424054645407 1.653223486966518 0  0.1538730573856537 1.559850281736677 0  2.33984375 2.33984375 0  1.166539506212474 1.922878979538754 0  0.3914885633949916 1.65887232812171 0  0.5795503163042564 1.766243562569382 0  0.399533125920212 1.946786875081388 0  0.7866324979014098 2.127719094551316 0  0.3654683023546834 0.1495701132219454 0  0.1527388747131078 0.6116379440619215 0  2.013737577140188 1.391056634712135 0  1.17635437372994 2.213329084238133 0  1.737118141866284 1.010577140843115 0  2.200707118087222 1.164723314085963 0  1.697018908736685 1.993548551451517 0  0.5387621649009668 0.6070503962352419 0  2.032805785855952 0.5330427622570983 0  1.082699501358059 1.667818725183932 0  1.503819781540653 0.5468420196858188 0  2.015409142866072 2.175941657590429 0  1.752057611265444 0.869642097111018 0  0.612251684107783 2.356045720700959 0  1.902817102342857 0.6607642211999982 0  2.159616561739693 0.7867739969338844 0  0.5120038350106624 2.197302352398502 0  1.888200216011548 1.919501662489862 0  1.495909909726654 2.16028358757309 0  0.489139876703609 1.443203008943564 0  0.8819175670410521 0.3301172743913011 0  1.882591144370812 0.8155965192707721 0  1.133979796994841 1.172526771862882 0  2.206217447916667 2.084147135416667 0  2.20361328125 2.36279296875 0  1.395746985657004 1.556054166359645 0  1.704383111516207 1.734750450338683 0  0.9575737847222222 2.36274223823052 0  1.035150984253136 0.1302833343179028 0  1.383966125325753 0.7651479963479179 0  1.64003252158672 0.6824316405528895 0  2.22550785055421 1.487078576356817 0  1.760964431499756 1.48495222505201 0  1.276460980673788 2.004207003584658 0  0.1341477688427096 1.828777507920502 0  1.542261434180652 1.155296658359034 0  1.334627911613854 0.9696897472490321 0  1.30794231473696 1.119420615785191 0  0.7028260459857245 0.4438906910721139 0  1.625757433094055 1.84268057552138 0  0.9818707849053143 1.165603626132254 0  2.0086489901463 1.243134585689553 0  1.934584460420609 2.374094051915812 0  1.798434376789567 2.38671361912528 0  1.206314791201715 1.382064292497919 0  0.6333752893366955 0.7023738550008095 0  0.7796219811205605 1.42573253164258 0  1.564399711917382 1.026040828857629 0  0.3385416666666666 0.4889012896825397 0  0.1041666666666667 0.390625 0  0.989112246382566 1.543537365516289 0  2.025724425454636 0.9846960595520872 0  0.6602885475034063 2.086117390485779 0  1.607130551925032 1.267198646640915 0  0.1317864544877056 0.8896173683400176 0  1.755387840017567 2.230364320056445 0  1.301540702984401 0.1216289692748247 0  1.433170657577442 0.3331052752740999 0  1.500459610550388 0.113513924782439 0  0.6494291520606965 1.029586599619295 0  1.010146149868299 0.794897284196169 0  0.3700844198238017 2.235390157870766 0  0.3360891767780704 2.36656279435396 0  1.876856241037701 1.437150669863757 0  1.778674102957329 1.245979347269706 0  0.5472829890977179 0.1005517127039925 0  0.4669074189005698 0.3416784232954367 0  1.472765289289269 1.850899166481903 0  1.555853593327178 1.608452097912802 0  0.6708955559113426 1.646561631116984 0  0.8164699620322933 0.5924479455478063 0  0.3167738989468366 1.758696809749795 0  0.2788007305565096 1.605499483471246 0  0.7821720982350511 0.181524936294752 0  1.376812251214195 2.313340247908297 0  1.785652202614777 0.5962261755537186 0  1.761467296310972 0.4679567244718574 0  2.2265625 1.8359375 0  2.3828125 1.9140625 0  0.5279531607054191 2.071552361614785 0  2.397573269551114 0.234375 0  2.383578172599618 0.3589298466020009 0  0.1024267304488855 2.265625 0  0.1164218274003825 2.141070153397999 0  0.2696857594953064 2.135405441512016 0  2.164961300137334 0.1375322943529536 0  2.137757548369486 0.2724194778647587 0  2.238873711826398 0.3626419179496562 0  0.1001414910226386 0.234375 0  0.2176339285714286 0.3478422619047619 0  0.2503620791333544 0.1061694061057066 0  2.336445461915368 0.1250451055247424 0  0.2154004640409726 2.3918124
[...]
<PointData  Scalars="f_16-2"> 
<DataArray  type="Float64"  Name="f_16-2"  format="ascii">-9.6625032269030226e-55  -1.0284876853038100e-24  -7.4116682906905979e-63  -1.5639852147723594e-64  8.2632817188067382e-39  -3.5798361579803666e-56  -1.4307651899192271e-53  -5.9095823240754894e-31  -4.9073002611659979e-35  -9.7304739070358886e-21  5.3603462685324331e-28  -1.8776445079671505e-53  -9.1337481315787365e-43  -1.0486391877445342e-60  3.7124747698896911e-51  -5.1614419039477942e-59  -6.2407085738023568e-58  -1.2339180719738806e-42  -6.6301651360301733e-39  -2.0041630516427906e-26  -1.2523992639900672e-46  -1.9846546746516460e-28  -5.3042391147197942e-44  -2.5230140997711783e-19  -1.7087791240567322e-53  -1.7437595239670256e-34  -3.1141095198254342e-36  -8.9185475540555138e-47  -5.0430374654213055e-50  4.2129253133107066e-53  -1.0003690140404986e-46  -5.2588177719900890e-41  -6.3115055514303676e-23  -7.3448143700732134e-51  -1.3487975362921391e-32  -4.4156206744380998e-34  7.4470583312497046e-46  -2.0969957779280755e-29  -7.4153986537021911e-41  -8.4082281518608609e-53  -6.5434103249926068e-32  -1.7184103951281700e-49  -1.7068966612422520e-23  -7.6141336163858297e-19  -1.9750783632843338e-61  -2.7931252447968029e-61  -2.2326352358668128e-28  -3.3383416909446359e-24  -2.8792925189440784e-48  5.6884953875431846e-45  6.1534810603292777e-33  -1.5953575224695309e-55  -2.6013787839774085e-58  -3.4670178032493143e-57  -1.0935775650785638e-25  -1.7177985579754433e-36  -3.0742921973145910e-53  2.3597503031885491e-64  -7.4956877907765465e-49  -2.1201480178001858e-55  -4.5949907418961584e-57  -1.2050427267791186e-24  -9.6221934170802913e-42  -4.6570840444011045e-49  -1.1540557574588791e-38  -6.7400154809239278e-40  -8.1151891861111588e-33  -3.0324342095190287e-49  -5.5567074922004120e-48  -2.0201556583902122e-44  -4.3200173085152144e-36  -5.9895189623582725e-37  -2.2948924462960879e-39  -2.0410262449102815e-17  -4.1780962214165336e-21  -1.7936830802678367e-22  -5.5459508472672374e-56  -2.5668660621827965e-58  -1.2790695506924212e-54  -1.3098777843889036e-40  -1.4136551781358662e-17  -5.5820193100074467e-31  -3.2716068527831952e-45  -5.2612337790948438e-39  -3.7933159726005952e-49  4.5095902321163361e-58  -4.3409645727069271e-59  -9.2002855886049689e-43  -7.0747366944710825e-46  -1.8565539901075126e-51  1.6566971822945524e-54  -2.2802735947257130e-54  -1.8134781892000840e-50  -3.7928939601428047e-53  -3.0778901042163564e-50  -7.4712343827199386e-38  -9.1304995632979206e-34  -1.5294349220202704e-53  -8.7564687398441385e-46  -6.6842626585901002e-51  -4.2741312948083158e-44  -3.1616649966520510e-47  -5.2924095581961604e-43  -3.8980032876826580e-38  -1.7166781349975512e-41  -9.4931441530944202e-20  -4.3533436948088322e-23  -3.3723213361292369e-25  -5.6585568317805836e-50  -1.7837486053462755e-56  -4.0243998018516085e-36  -2.1427433921407639e-28  -7.7719129621668397e-26  -1.1957713810780830e-30  -1.1644583004010975e-26  -1.4719734706730768e-29  -2.0965112785121933e-32  -9.8057610324268268e-48  -1.9776163932285973e-51  -2.4907939291671576e-42  -4.9449028741846282e-30  -3.9402430912297033e-50  -1.4705003316740346e-59  -2.2885048081773764e-33  -2.2658329778381882e-33  -5.3654716570218265e-63  -7.0586867061617802e-22  -2.0725260957031115e-54  -5.7707770783049343e-52  4.6512243772440489e-45  -4.8940382004640608e-25  -3.1752029846833909e-44  -1.8384324573259224e-35  -2.1105577522573704e-41  1.8594660903260822e-50  -1.2262361453494822e-41  -3.1987983135679917e-41  -1.7374594274651005e-21  -6.0127351726628067e-38  -5.8263504069504956e-27  2.0120710772993417e-30  -2.0317072471165647e-35  7.2020872189763257e-36  8.5509558145976993e-36  -6.7141444659251793e-56  -3.2407887383344682e-54  -5.9477459793157819e-63  -1.1259718850984438e-53  -1.5557259370709076e-42  3.7339364755773279e-54  -9.6602697359455014e-36  -1.2086994064065407e-17  2.3378017189831587e-30  -1.4944170585701852e-57  -6.7649649982134917e-30  -7.8594056724945896e-36  -3.3240927525642087e-47  1.2384988180221109e-50  5.7749292177190694e-48  -4.9880190270774519e-44  -1.2481775246823760e-58  -3.7714032904594488e-47  -5.7193051177643329e-54  -2.3062760341857954e-60  -3.0785418764717788e-63  -6.0476239343750170e-55  -4.5878413357114928e-52  -1.3874049506502903e-30  -1.3530039111362204e-25  -1.7450399629960526e-31  -2.3555047595846933e-21  6.7582740426229746e-26  -1.0066965574594539e-47  -5.7981539401085201e-24  1.2413235954465949e-20  -2.1517217793733874e-53  -1.6650911451985357e-24  -2.4322718431561006e-28  -2.5515056112842548e-27  -4.9566459616489885e-31  -4.6675810121827892e-44  -2.4603993669164349e-40  -6.1135698222312278e-51  -2.3176652880426011e-53  -2.0588527346441683e-53  -2.9050544738744719e-54  -2.2801025475730813e-56  -3.4385970377110533e-53  -1.5802737998507961e-58  -2.2481866307305952e-56  1.8529505974695298e-54  3.9915303296216817e-62  4.0750754684508357e-42  1.2785975446042835e-25  -6.0400705986477928e-19  -1.3833285746940036e-33  -1.3295970168475634e-39  -1.1999629650531619e-45  -6.1495210304542418e-58  -4.1892140325068447e-60  -1.9204159450933194e-49  -1.0600334653667619e-36  -6.0864429941451287e-61  -1.6695472905590175e-43  -3.8344149602982453e-37  -7.2659724815497391e-39  -2.8499610726967113e-43  -6.8443833387312271e-46  -1.3834521151706030e-20  -1.9668825318535698e-19  -8.0977432983060830e-48  -2.6806218626137582e-48  -1.9109400843762603e-41  -1.5994781764330321e-50  -4.1995347630371985e-49  -7.5330457320299870e-21  -5.6538146469429334e-51  -8.8029535062487181e-39  -3.4909470405805328e-38  -3.6586738642742094e-55  -1.7362514249395614e-41  -7.6626299870927153e-51  -5.9557954598648550e-46  -5.1868605694693096e-51  -7.8190759032442738e-48  -1.4647073449368372e-50  -1.3448928436043123e-49  -1.2807456771838319e-32  -6.9070442341820432e-27  -1.2367103948673230e-44  -8.2216968745610639e-33  -1.6667805215660398e-56  -6.2537371810182757e-60  -3.0270527486322525e-40  -3.6333091022842817e-46  -1.3549935933818596e-50  1.8510889083258422e-33  -1.4420949855905633e-34  -4.4067201524928933e-40  -5.7114335336381447e-52  -2.8221333326666489e-44  -1.9826639398579052e-45  -1.2019437584281607e-41  -1.6113925700928810e-38  -4.0575607607022638e-34  -8.8111319020267578e-35  -9.4571447669133946e-23  -2.2974432004572555e-46  -4.3987310212310435e-31  -5.7155522084507932e-47  -6.4596341080397902e-57  -1.0095115515565918e-55  -5.2990594615144435e-36  -1.5137998438024465e-22  -3.2329380321339944e-33  -3.6139618661639299e-38  -4.1211516412738631e-18  -4.0003656243474867e-17  -2.9009382911852729e-36  -5.6501317927552889e-47  -2.7264284365868411e-45  -3.0621359760541305e-40  -3.1497526315089794e-24  -6.2686760913358686e-53  1.1540008209228663e-39  -2.6713951331794093e-39  1.5530561103664917e-43  -1.5823375451982445e-26  -2.7459690082616846e-28  -1.8854719719547797e-49  -6.4193008236590032e-53  -8.6581049047331877e-46  -4.4106866571073071e-43  5.0084812918404553e-25  -2.5548082016196970e-19  -6.4940411992122183e-45  -8.1827287889898022e-43  -1.2322569023268625e-36  -1.9309903985270112e-24  -7.0666340048878432e-40  -6.9371703186566908e-37  -4.7374150246736835e-28  -2.2628616787914634e-51  -3.2662801860241753e-44  -3.6543712814125716e-45  -3.0139218521028258e-54  -1.8746848746465329e-57  -4.2803210526884635e-45  -7.0925002934907843e-62  2.0572420437231127e-60  -2.5704518696028494e-50  -6.1440487464329838e-48  -1.2855977856638973e-47  5.0989337047022254e-58  1.4328257341817584e-55  2.7956366121188909e-57  -2.2045703777949594e-17  -1.0430280811771181e-16  -1.7576864800538045e-21  -1.3340720003947172e-60  -4.3306549298776032e-53  -6.5338594590724885e-48  -1.6419399204520354e-21  4.5556030798810181e-47  -9.0660411918684204e-29  -5.7189995974626614e-32  -1.5668408408441066e-33  -8.5612771528604475e-45  -1.8526946674971707e-42  -1.1965650999457204e-28  -4.7662725464632254e-44  1.6049458924838425e-52  2.9509271920489065e-58  -3.4887172907842303e-56  -2.3968827928316654e-60  -6.4293705289121254e-21  -2.0861692402388869e-41  -1.5939218525406136e-41  -1.5529246537681124e-37  -6.7292404946129587e-52  -6.4808402435980092e-40  1.0545202080853858e-47  -2.7932144160084828e-23  -1.4062826900794953e-37  -7.5006874396574546e-40  -4.5910854615323976e-52  1.2948425047497757e-30  -8.0181387450808410e-51  -2.2126241339588666e-47  -6.2820560551512264e-28  -1.5711429206820962e-54  -1.4594003781286784e-21  -5.4438190500155275e-30  -3.0053645833116393e-51  -6.3385558025020436e-52  2.7428625583627677e-50  -5.9611074311970315e-52  -6.4118063365003279e-34  -2.3183118381319469e-32  -2.1832836330239943e-55  -1.1548626390875553e-51  -1.1317629675347724e-28  1.9762063421425766e-46  -8.1394276378964749e-40  -2.5105561456165704e-53  1.3616739981044792e-49  -3.5814490458571336e-56  -4.0036720807092294e-49  -1.1639076354257217e-36  -1.3283944370657725e-51  -1.7419591360225444e-32  -3.4199356959154522e-21  -2.0486254265962298e-19  -1.2464680706433749e-18  -2.5896841519191124e-43  -4.9318075424533406e-38  -1.0592163692836732e-29  -7.1560166011838524e-55  -1.2010162509818381e-54  -9.2596814284377577e-53  -3.3767229839855554e-53  -7.2863437878435751e-63  -3.5043867618325002e-48  -5.4129434854780885e-50  -1.6014752132274174e-35  -1.7099041289883711e-59  6.0798864982881672e-42  -6.1463149742087317e-51  -9.1412267970819883e-45  -3.0523519437824218e-42  -8.9672428815156834e-37  -4.9439408810340890e-35  -5.3629425467478482e-19  -1.8745441243275441e-56  -3.0129775577262107e-42  -3.8863918669077681e-31  -1.0995068335097985e-31  -6.5427171760116002e-54  -7.6749918935087300e-25  -4.3294796064511844e-26  -2.5159312476262442e-25  -2.0298076247652017e-28  -4.4729105745294549e-47  -6.1154355379607292e-32  -1.7729330882612266e-40  -1.9701615248309825e-37  -1.3217568835881299e-43  -5.4404807712565502e-46  -3.3896611175501278e-52  -1.7017847758149429e-35  -6.9439958586612887e-34  -1.3943807430691205e-22  -7.5247363983804958e-48  -9.6062171995367168e-24  -2.2278091730692287e-27  -5.6619695395076892e-55  -3.6067793735573677e-39  3.1753846961112419e-44  -1.5928991947733690e-54  -3.7281132954271613e-34  -2.1875520174166476e-18  -2.6501638218895160e-26  -1.0684175808239046e-45  -9.3142537761409344e-49  -8.0055612090969203e-39  -9.0060985171103657e-49  -1.1572114630048946e-53  -8.6692633256898765e-35  -2.9620781327579176e-23  -1.2861682479632587e-61  -4.3975257318833333e-31  -7.9227134031437518e-32  -9.3112995577564970e-31  3.2668742614337804e-55  -6.1621284596114878e-38  -1.1512472856177263e-34  -4.5902758980694282e-44  -1.4862811718219410e-20  -6.2802894093752964e-27  -5.7391255193493069e-54  -3.0037793628223777e-34  -1.1917867903407798e-45  -3.3654207105226021e-49  -2.6180970998164571e-51  -2.3845086804788108e-31  -9.1355861109820915e-29  -1.2307541621545490e-40  -5.3791165896526818e-46  -1.1333074094815378e-49  -4.1652752316022660e-52  3.0959607140536747e-29  -2.9994629249439016e-37  -7.9913125177191312e-52  -1.8568131277800841e-49  3.6881620932613269e-53  7.2029511574997455e-37  -1.7876887504388883e-43  1.4272889949518983e-41  -4.5400815939150470e-48  3.5613718490857829e-28  9.3435906635669489e-57  -9.5965142081143367e-40  -3.3900427544236896e-30  3.1557759560958285e-48  -1.6548149895876828e-61  -1.6591759150417937e-25  -2.1766074764695771e-44  -3.0639901600956485e-35  -5.5126763397761127e-30  -3.6418504921391435e-59  -8.3956782182376797e-40  -5.9987483434830502e-28  -2.7685817713264581e-50  -9.1197333339531205e-58  -8.6681844735035694e-52  -2.0436994013956224e-53  -9.3803941405134414e-28  -3.2542166572308501e-21  -6.2487441343622270e-35  -6.3090074647973664e-23  -3.1654866507219908e-43  -2.4431999791099665e-39  -2.8611872172153893e-30  2.2794763980164341e-56  2.2186764118699343e-55  -2.1302380082399088e-31  -1.0863146495665540e-48  -1.9176379375114995e-24  -2.7092620429124615e-40  -6.9254250485776932e-20  2.8811270907105162e-52  -2.1580064806209494e-24  -8.6682054937689513e-26  2.5333894386324405e-34  -1.8804851897636438e-36  4.5513675665544464e-38  -3.1127910601504227e-42  -5.2644190677271794e-43  -5.0638736736596103e-40  -1.8441863454665631e-22  -1.8837798164274762e-55  -4.0620550160373183e-56  -3.2193456703205761e-58  -1.5538940196617827e-49  -1.6136950499762065e-28  -5.9573524083742794e-56  -1.6193378563560787e-23  1.1253754319992424e-33  -1.4628554740852381e-29  -1.8651243621978685e-46  -3.4202349453059550e-34  -1.5988415616872519e-39  -7.1459455031987639e-51  -2.9530502138295244e-37  -4.3932389815202006e-58  -8.4507265441447427e-54  -3.2486440932191806e-45  -4.6573866840270681e-53  -2.7298283439519414e-43  -4.6293693162617184e-55  -1.6565168760792069e-48  -1.8559323536871783e-39  -2.1250253993807698e-33  1.1338358643869032e-24  3.1526504471653910e-61  1.3160750234484073e-59  -1.9473727788885834e-51  3.0182709666642573e-32  -2.7487701155706526e-41  -4.9802509129157064e-41  -9.4145048892251229e-43  -3.7245359894615351e-58  -5.4380583570685681e-29  -1.2388718350968255e-47  -1.3357987588120854e-27  -7.5928017315707352e-26  -3.4310027496255084e-46  -3.3593008469129965e-41  -1.1238633797727057e-43  -6.0014700393556416e-53  -2.6277941276453913e-52  5.3791801600078044e-36  -3.7958195944307978e-27  -1.8004769125076683e-35  -4.6684007480150519e-54  -1.4526424314554584e-47  -2.8702660651011650e-41  -3.5562790873962707e-42  -4.7767962464442111e-43  -7.9445610758824322e-48  -6.7993382539833627e-46  -1.1604019935885086e-52  -1.0180941978641983e-51  3.6310282755169448e-38  -4.3331275311077548e-59  -2.5532945512785759e-48  -5.3724014227972173e-49  -9.8870394642588382e-46  -1.4348059655186693e-57  -6.6892940701739604e-56  -8.9752038947439561e-57  -6.1648931896927961e-63  -4.8910402604054097e-47  4.8581801735627786e-53  -8.2461114588399231e-27  -7.0961885269644331e-27  -1.3076600314467917e-39  -3.1407294176664901e-52  -2.9469696751769903e-55  -1.5325338832152625e-41  -3.9217287144175108e-60  -5.3145898810149735e-58  -4.7610089360174880e-34  -1.4319266961642438e-35  4.1287090975679965e-59  -2.7055002883687555e-49  -6.4979074061310628e-39  -4.6129410022157877e-27  -2.7766473988574521e-49  -2.7755413382362928e-49  -2.5475743707104564e-59  -2.6678736027657485e-17  -2.9344750300864031e-17  -1.8630613948088149e-18  -4.8060930866619329e-42  -4.5747477008592770e-62  -5.2420116178021634e-45  -1.9051301107982199e-24  -4.5690497575762389e-58  -1.0611961666852847e-51  5.3208668315831244e-43  -4.3388802816902834e-42  -1.4174785374498622e-48  -1.0825340747153871e-61  -1.7070341172831535e-41  -1.8369404164423338e-54  -3.3916849827923715e-59  -2.8615140863974014e-22  -3.0555364553459548e-34  -6.3479184075606023e-41  -1.1296714653384589e-51  -1.0073765636977521e-55  -3.6422256022089379e-39  -8.1213801465028308e-48  1.8393725318834699e-23  -2.4276968301898831e-38  -1.4579530809808057e-59  -3.4266644820612865e-36  -5.7382355571260249e-25  -1.7368790025686577e-31  -2.3792518609052319e-45  -8.4724594190765814e-30  -1.2246971074152014e-33  -4.9096823066401380e-30  -5.3413253463517055e-52  -4.3985879963221246e-44  -1.2498411002890674e-18  -3.3770575805035129e-32  -6.9267727411360263e-23  1.7287477249708241e-26  -2.3832562441656293e-24  -3.5078627007353155e-20  -3.8142606749023483e-21  -8.5492589059981466e-55  -1.4240277293800822e-56  -2.0668219973909043e-37  -3.1091379277668387e-35  -7.4595316842312215e-35  -6.7340057880911302e-33  -1.6245066182370615e-16  -1.7068573466912813e-47  -1.7859117942323350e-52  3.1105004580997320e-34  -1.2953935711927976e-54  3.9839767163832157e-56  -2.7348559083275869e-57  -1.9631700670461761e-45  -1.2875146758913266e-56  -1.4838072493334756e-29  -7.1700486546949913e-52  -5.0816677356585279e-36  -3.9134796387229855e-50  -9.5759446830857448e-51  -2.9620293756425420e-25  2.5632216848026886e-22  -1.2667688793302326e-53  1.6090492439342309e-40  -1.2647318341375161e-59  -3.2446037918217696e-18  -2.9167773033175452e-47  3.0994297121937718e-61  -2.9506890149497767e-23  -9.7892387452418722e-24  -1.6532364696467404e-40  -1.2951347466580340e-49  -9.9364720676011449e-37  -2.0972346029712399e-30  -1.6089187556421492e-58  3.4139539737067529e-23  -7.1837360585768358e-59  3.7541455177498893e-52  1.0495195305204171e-31  -3.4339045119176304e-49  -7.3754461832810788e-19  -1.2737422717180157e-38  -2.2965004552602076e-46  -2.3838978170387816e-44  -4.0444640133282429e-41  -2.1169498001769801e-53  5.8492759813796451e-48  -3.1654682662026051e-42  -4.0559661358653770e-32  -2.6115648131838795e-43  -2.6374617087457248e-47  -2.0945709505114560e-53  -6.7980226920751181e-55  -1.5792581176287414e-47  -5.8890683117614460e-31  -2.9026208488981175e-53  -8.0547977359034097e-56  1.9992323115661778e-37  -2.6447442738234052e-62  -3.2512600227367581e-53  -2.5527705720680600e-60  -1.7531885136341762e-53  -8.6603169829131210e-55  -4.4606677066459448e-54  -5.9597296540256636e-38  -2.1040310621278481e-53  -2.3600695309157830e-57  1.0070649850159749e-49  1.5682483036727585e-46  -3.2321129924675126e-56  -2.4778904124519749e-56  -1.2924507934712972e-56  -5.0023369677866778e-27  -1.1181456259621898e-29  -3.2019619393382637e-32  -2.4984661181484180e-53  -9.2039146898033669e-22  3.2463601837676833e-32  1.0821266777807268e-52  -3.6173087875138112e-44  -5.4220733042443524e-55  4.3603217491168275e-24  -1.9325952061907870e-50  -1.9797733951373328e-63  1.3983548539177331e-26  1.9482879630095504e-43  -5.4856142297329607e-20  -1.5808825443938927e-18  -3.0310888763114870e-57  -3.3494071990265499e-62  -9.3485947757672943e-64  -6.3646972360904246e-64  -3.9175124675426842e-35  -4.8726356605676270e-55  -9.2327577766096167e-20  -2.1299242354471220e-58  -1.1902672077737594e-60  1.4011836723046660e-62  -1.1450407510856892e-45  -1.4837228565122863e-48  -1.3070876081190789e-37  -7.5587203949181134e-52  -5.9909653666693130e-37  -2.7282186070415293e-52  -2.2295921030974560e-21  -2.0192993142943381e-21  -6.6170866249364539e-20  -3.6084269514549900e-54  -6.3240761531926658e-25  -2.5919094759582433e-26  -8.5855905688525930e-20  -5.5064585707966914e-45  -1.2546463361341214e-30  -2.8127012995760218e-29  -2.5479666276923103e-45  -4.1818867288294880e-35  -1.9192288230066258e-36  -9.9077554750565505e-38  -3.0382933561539748e-32  -1.9894289124569779e-20  -2.4365781250680700e-18  -1.4969384641466743e-51  -3.7593991691863827e-46  -7.1313249787576151e-43  -4.4930425933670618e-50  -3.9561932349556811e-23  -4.8026267999285897e-55  -6.0094647266297654e-36  -5.8114185452699066e-45  -6.8416166898352869e-32  -3.4253812873523179e-24  -2.8742779637183053e-39  -1.9254320157512363e-43  -2.3745420167771244e-37  -1.8974210043530869e-27  -5.6603341322671729e-30  2.9662449191764133e-49  -1.0876184290055555e-52  -3.2165166307273126e-24  -3.0924946253211607e-50  -1.2886833246738612e-52  -2.6700617004817859e-34  -9.9233799686655244e-41  -2.1004812422235679e-25  -6.6905131119856204e-43  -6.4515618869986215e-22  -2.4122529419539632e-53  -3.7081715936109688e-37  -3.7140702603578448e-38  -9.6071073161789744e-50  -2.4747465861684209e-46  -1.4602979942187928e-46  -3.8072071710454671e-49  -5.0855924089145813e-48  -1.9521283077243092e-46  -1.0324490964750004e-33  -6.0284406299443350e-46  -1.9612660083207019e-39  -3.6323246325967086e-33  -1.6620827257660526e-41  -6.4222282854743389e-43  -2.1931849141437220e-52  -6.6421088954829340e-37  -3.2561320914422046e-44  -7.9839319258985394e-46  -2.6187774971382474e-46  -1.4780769639532711e-44  -4.7544366066013657e-36  -2.8331192432706965e-36  -2.0568116426159688e-38  -3.5332610077635254e-31  6.2539025837992382e-55  -6.4898315699613363e-49  -1.4553329593279340e-49  -5.8283260502548936e-48  -6.3798436949604909e-48  -2.3157723858687979e-49  -9.1367122637926247e-53  -3.5184925015675249e-41  1.7594238418251099e-40  -1.0584100920761659e-52  -8.0943040596142131e-56  -8.1179347830142126e-51  -2.2673208641805950e-39  -5.9111558674605831e-33  -2.4061840518053699e-29  -5.6620221988093830e-41  4.5983887441980100e-54  -1.6502893291398813e-25  -1.9963536867788343e-39  -2.8961286343269321e-54  -3.7922040408805720e-22  2.2560631444071568e-50  -1.3267771529169505e-54  -1.0862634954554926e-54  -1.6360950012572508e-58  -1.5778787417969791e-50  -4