<?xml version="1.0"?>
<VTKFile type="UnstructuredGrid"  version="0.1"  >
<UnstructuredGrid>
<Piece  NumberOfPoints="6486" NumberOfCells="12696">
<Points>
<DataArray  type="Float64"  NumberOfComponents="3"  format="ascii">0 5 0  0 0 0  5 0 0  5 5 0  2.5 0 0  5 2.5 0  2.5 5 0  0 2.5 0  2.5 2.5 0  0 1.25 0  1.25 0 0  1.25 5 0  0 3.75 0  5 1.25 0  3.75 0 0  5 3.75 0  3.75 5 0  3.541666666666667 1.458333333333333 0  1.458333333333333 3.541666666666667 0  1.875 1.25 0  3.75 3.125 0  1.284722222222222 2.326388888888889 0  2.683189655172414 3.767959770114943 0  0.9375 0.9375 0  4.0625 4.0625 0  0.7252209595959597 3.026357323232324 0  2.763480392156863 0.9129901960784315 0  1.875 4.345238095238095 0  4.345238095238095 1.875 0  4.192708333333333 0.8072916666666664 0  0.8072916666666665 4.192708333333334 0  3.368055555555555 2.326388888888889 0  0.6837606837606839 1.738782051282051 0  3.285485245626782 4.324328415208927 0  2.551239698778062 1.693130150610969 0  1.827256944444444 2.868923611111111 0  3.464875022477093 0.6813924607921316 0  1.942880513719175 2.059558626187995 0  3.04563492063492 2.971230158730159 0  4.375 3.4375 0  2.13639445139758 0.5994472256987903 0  4.272228422619047 2.606956845238095 0  0.625 0 0  0 0.625 0  5 4.375 0  4.375 5 0  0.6400043240752655 2.384646170113389 0  1.347691225855598 1.660875475110776 0  3.515783617857982 3.723905460714006 0  3.125 0 0  1.875 0 0  0.625 5 0  4.375 0 0  5 1.875 0  0 1.875 0  0 3.125 0  1.875 5 0  5 0.625 0  0 4.375 0  3.125 5 0  5 3.125 0  1.489644181965304 0.6007147273217681 0  2.054597701149425 3.742302955665024 0  2.662520990197781 4.39452575763237 0  2.415835363784578 3.165530021913244 0  0.8679986894865213 3.602373689486522 0  1.267459753787878 2.886186079545454 0  4.099702380952381 1.365327380952381 0  1.316964285714286 4.438244047619047 0  3.7915135293491 1.959691594758709 0  2.875141124191255 2.118761176511833 0  3.00418010501169 1.397414179299248 0  0.4081721322167092 3.410647930198662 0  0.4166666666666666 0.9375 0  1.014190407998288 0.4422301359994293 0  1.383260571305984 1.162718286082048 0  4.53125 3.90625 0  4.453125 4.453125 0  3.772848162504192 4.48678272083473 0  2.8125 0.404329517041716 0  0.4538690476190476 0.4538690476190476 0  2.305461739347387 1.04517007574828 0  3.771263799175824 2.624190260297553 0  3.229617768018734 1.809956994202883 0  3.780190884441317 1.025307111692601 0  4.646337365591398 0.9375 0  4.537623451379149 0.4609485750426037 0  1.200477888421151 3.934852888421152 0  0.3536626344086022 4.0625 0  0.4623765486208503 4.539051424957397 0  4.0625 0.353662634408602 0  4.560525106689535 1.390989100915847 0  3.958439078571988 3.619844539285994 0  4.672619047619047 2.1875 0  2.1875 4.672619047619047 0  1.862808494877602 3.325947624431087 0  0.3268135998175443 2.8125 0  4.674181280189791 2.8125 0  2.283233994935276 4.138623547175983 0  0.9375 4.677879119362977 0  3.08488061581743 3.469889594488945 0  3.113427375573758 3.913955730709506 0  1.652847799068813 3.950848935641292 0  2.932652662909449 2.550542739521724 0  3.311350648514189 1.088831994878698 0  0.6770833333333333 1.295851139601139 0  0 1.5625 0  1.047214787840024 1.96818092308125 0  4.183331482095785 3.03958703580843 0  3.4375 5 0  1.071307777252521 3.246275861010018 0  0 2.1875 0  0.386576856303419 2.03125 0  1.713862716483534 2.439783116849799 0  1.775396256975935 1.665976816304977 0  2.231236976948428 1.443917394671254 0  2.373900732409897 2.086930260150635 0  4.114918237574474 2.221646174618671 0  3.661302567757379 4.099620139144836 0  3.378215938602977 2.734494874063393 0  0.9842097536079312 2.597286741306247 0  1.642795138888889 4.672619047619047 0  4.0625 5 0  2.099458800960004 2.567446522665629 0  2.616202751603346 1.297895893940078 0  5 4.6875 0  0.9937554350075428 1.512592975947215 0  2.8125 5 0  3.002695327068194 4.614055254615477 0  3.205627424097207 0.3852436382721472 0  1.678616581261621 0.927556612265266 0  3.365326698305438 3.196943731162083 0  1.554834936170314 3.120009882655813 0  3.108408340729323 0.7797187795784133 0  3.684368918102174 0.3728877601163941 0  2.716214835303553 3.39276351922003 0  2.37718583984784 3.551973401560441 0  0.3750662445374837 1.52191994866787 0  2.679073487930202 2.844160731602957 0  1.557635869750078 1.991068682985722 0  1.812595698561088 0.3839273018252746 0  2.512014721281916 0.6320641118792227 0  2.1875 0 0  2.349973454443689 0.3189980586887866 0  4.6875 3.59375 0  4.636052949022233 3.178355898044465 0  4.6875 5 0  3.345485909784306 4.665765449101383 0  0.536727472389443 3.749603193819277 0  4.349541499640203 1.116201826262156 0  2.886559045931982 1.774013674579691 0  0.6770833333333334 0.7142857142857143 0  1.5625 0 0  4.120842096538671 4.628726497527622 0  2.176157474177018 1.793470423744689 0  2.175650736889416 2.909863021769539 0  4.036616464259081 1.709699085170981 0  3.887974623473683 0.6492597046022868 0  3.4375 0 0  3.70675699592552 2.289666624772415 0  4.697265625 4.208984375 0  2.815177577303495 4.085937578239174 0  4.672619047619047 1.730733296184288 0  4.6875 0 0  5 0.3125 0  0.3125 5 0  0 4.6875 0  0.3276089296588581 2.484526834811734 0  0.712433309515852 2.065138854645612 0  0.6376435912223634 2.711473454001295 0  1.184991292170422 0.7222504400947201 0  1.31884329779317 0.3206944232264773 0  3.683609198994263 3.44428698533042 0  0.3125 0 0  0 0.3125 0  4.231797269642997 3.789141808928991 0  1.564375596050781 1.425998687184973 0  2.007640894175573 0.9032106925568466 0  0.955125897558294 2.276666098587227 0  1.43898735721003 2.611310720271951 0  1.954491523717513 4.040700257877075 0  1.752947649777421 3.652439445419346 0  2.509575750247638 4.678021307664052 0  4.687194709705067 2.499965519538002 0  1.5625 5 0  0.9375 5 0  5 2.8125 0  2.1875 5 0  5 1.5625 0  5 2.1875 0  4.0625 0 0  5 0.9375 0  2.8125 0 0  0.9375 0 0  0 0.9375 0  0 2.8125 0  0 3.4375 0  0 4.0625 0  5 3.4375 0  5 4.0625 0  4.010848109290813 3.306446973933037 0  0.3077461147713075 3.119700563473354 0  4.6796875 4.6796875 0  2.333079012424948 3.845757959077508 0  0.7829771267899832 3.317744656243421 0  1.159100632608513 3.532487125138763 0  0.799066251840424 3.893573750162776 0  1.57326499580282 4.255438189102632 0  0.7309366047093668 0.2991402264438908 0  0.3054777494262156 1.223275888123843 0  4.027475154280377 2.78211326942427 0  2.35270874745988 4.426658168476266 0  3.474236283732569 2.021154281686229 0  4.401414236174444 2.329446628171927 0  3.39403781747337 3.987097102903034 0  1.077524329801934 1.214100792470484 0  4.065611571711903 1.066085524514197 0  2.165399002716117 3.335637450367864 0  3.007639563081306 1.093684039371638 0  4.030818285732145 4.351883315180857 0  3.504115222530889 1.739284194222036 0  1.224503368215566 4.712091441401919 0  3.805634204685714 1.321528442399996 0  4.319233123479386 1.573547993867769 0  1.024007670021325 4.394604704797005 0  3.776400432023095 3.839003324979723 0  2.991819819453308 4.320567175146181 0  0.9782797534072181 2.886406017887129 0  1.763835134082104 0.6602345487826022 0  3.765182288741625 1.631193038541544 0  2.267959593989681 2.345053543725764 0  4.412434895833333 4.168294270833333 0  4.4072265625 4.7255859375 0  2.791493971314009 3.11210833271929 0  3.408766223032414 3.469500900677365 0  1.915147569444444 4.725484476461039 0  2.070301968506271 0.2605666686358055 0  2.767932250651506 1.530295992695836 0  3.280065043173439 1.364863281105779 0  4.45101570110842 2.974157152713635 0  3.521928862999512 2.96990445010402 0  2.552921961347576 4.008414007169315 0  0.2682955376854191 3.657555015841003 0  3.084522868361304 2.310593316718068 0  2.669255823227708 1.939379494498064 0  2.615884629473921 2.238841231570381 0  1.405652091971449 0.8877813821442277 0  3.25151486618811 3.68536115104276 0  1.963741569810629 2.331207252264507 0  4.017297980292599 2.486269171379106 0  3.869168920841219 4.748188103831625 0  3.596868753579134 4.77342723825056 0  2.41262958240343 2.764128584995838 0  1.266750578673391 1.404747710001619 0  1.559243962241121 2.85146506328516 0  3.128799423834764 2.052081657715259 0  0.6770833333333333 0.9778025793650794 0  0.2083333333333333 0.78125 0  1.978224492765132 3.087074731032578 0  4.051448850909273 1.969392119104174 0  1.320577095006813 4.172234780971559 0  3.214261103850064 2.534397293281829 0  0.2635729089754111 1.779234736680035 0  3.510775680035133 4.460728640112889 0  2.603081405968802 0.2432579385496493 0  2.866341315154884 0.6662105505481998 0  3.000919221100777 0.2270278495648781 0  1.298858304121393 2.05917319923859 0  2.020292299736597 1.589794568392338 0  0.7401688396476035 4.470780315741533 0  0.6721783535561408 4.733125588707921 0  3.753712482075402 2.874301339727514 0  3.557348205914658 2.491958694539413 0  1.094565978195436 0.2011034254079851 0  0.9338148378011396 0.6833568465908735 0  2.945530578578538 3.701798332963805 0  3.111707186654356 3.216904195825605 0  1.341791111822685 3.293123262233967 0  1.632939924064587 1.184895891095613 0  0.6335477978936732 3.517393619499591 0  0.5576014611130192 3.210998966942492 0  1.564344196470102 0.3630498725895039 0  2.75362450242839 4.626680495816594 0  3.571304405229554 1.192452351107437 0  3.522934592621944 0.9359134489437148 0  4.453125 3.671875 0  4.765625 3.828125 0  1.055906321410838 4.14310472322957 0  4.795146539102229 0.46875 0  4.767156345199235 0.7178596932040019 0  0.2048534608977711 4.53125 0  0.232843654800765 4.282140306795998 0  0.5393715189906129 4.270810883024032 0  4.329922600274667 0.2750645887059072 0  4.275515096738972 0.5448389557295173 0  4.477747423652795 0.7252838358993123 0  0.2002829820452772 0.46875 0  0.4352678571428572 0.6956845238095237 0  0.5007241582667088 0.2123388122114133 0  4.672890923830735 0.2500902110494848 0  0.4308009280819452 4.783624996516437 0  2.104871305393774 4.438653689007242 0  0.2274454167838428 0.2274454167838428 0  3.446466574593436 0.4359605369011901 0  2.12354112127588 1.217588426759619 0  2.309175236825235 0.7888355970690434 0  2.556178570281936 1.054299163237582 0  0.578683248637
[...]
<PointData  Scalars="f_16-2"> 
<DataArray  type="Float64"  Name="f_16-2"  format="ascii">-7.8763312724972920e-48  1.8492867923788958e+02  1.9258856962683225e-45  -2.2514224337711974e-69  3.0108554887824758e-21  1.0086814286157850e-52  -1.1954288377328568e-54  -1.0927958164533346e-21  2.9798358237570822e-33  1.9343913336451419e-07  6.9884440334885601e-10  -5.9254828247923865e-52  -1.5419791416711499e-35  -6.7016780713320904e-50  -7.9789577044385573e-33  6.7494361401079887e-61  -7.9631331544029570e-61  -1.5441376049642502e-36  -4.0000912286674731e-36  -1.8405729758557796e-19  -8.1043757057163139e-46  9.6485714132482994e-23  3.7280296406609139e-44  -7.3201173950776795e-09  1.7155161222997983e-56  2.2597942340977125e-28  -8.8047966906138235e-27  2.5976802453516083e-45  -1.3533967098111440e-47  2.1075221049540864e-41  -1.9109953160662528e-42  -5.1733454147364626e-37  5.4533022020256945e-14  -2.1615550246795989e-52  -8.8131897591696352e-30  8.6826779452101491e-30  7.5518329895336175e-35  5.5165342628523238e-24  -1.4642609198748062e-40  1.9215823012699661e-52  -1.8774478649235140e-19  9.7045247939387539e-47  1.1323066175368544e-03  9.7678054843700246e-01  -5.3687076889085916e-65  -6.8272493304340051e-64  -7.1139396724034554e-21  1.8405936453750623e-17  -2.5607984330602644e-48  -1.8121512671105690e-26  7.9486274292563115e-17  -5.5556392969114110e-51  8.6495757423350666e-40  1.7476354699805617e-54  -1.0628986091405917e-13  -2.0715730875870561e-28  -7.0425432386303824e-53  3.7750289242029510e-47  2.2782260531939517e-41  -4.6607127544381245e-57  -3.5273756785031873e-56  -8.9434461186272099e-14  -8.1275469516313889e-41  8.5543056622480674e-49  -1.4367892149212071e-36  -8.8973415740732669e-36  -7.2421674568694278e-29  -7.4267124682118368e-43  4.8697937588579135e-46  2.8321871460015062e-43  -4.2916441466925346e-33  1.6724074797623712e-32  -4.6602428139337714e-34  4.1536958622370594e-05  5.9153471059188819e-09  -7.8312851324406153e-16  -2.6035094691782130e-61  -1.0966244682039597e-61  -5.2478991342572996e-57  3.0450938340995913e-26  1.5468637401365162e-03  -3.2285520074051186e-24  4.2231835587524688e-43  2.0092112977366229e-35  2.2074404605221655e-38  1.1496450607723663e-44  1.7211176335702849e-43  4.9801739026592448e-42  -1.3551894080594488e-40  -1.5356300325371364e-45  -3.2361645066679659e-38  4.4638725616993920e-48  7.2112124311568733e-51  6.6566287147804299e-50  2.2196203540128627e-50  -1.4074235255317809e-35  2.0320194954737352e-25  1.8805988147981312e-51  -1.2854296311141757e-45  -3.6318455639633074e-48  -2.2178137999305529e-43  -3.7834355407286350e-47  4.6236277362505006e-40  -1.2758028108998398e-36  -6.9337137873347402e-34  -1.1908541463224465e-10  -2.0060613441352780e-11  -2.1363283330108108e-18  -1.9874942327776131e-49  -4.5303851948790275e-61  -9.2156842682492634e-32  -2.8137595240297073e-17  3.2026673950706746e-15  1.1870090573784247e-26  1.4659220493076146e-20  -1.1205101315322185e-25  -3.3978471281075023e-28  -2.1841965927060172e-44  -1.1742722155424121e-51  -4.6155423744457689e-40  1.3946770742895108e-24  1.0721558385360867e-48  5.8779755090643142e-61  1.6683303022629842e-29  1.3959117582766808e-28  -3.0782384359049067e-69  -1.8598295278085831e-14  -8.6253419862492661e-56  -1.5995259834353022e-53  -1.3761236511213505e-29  -1.1559865245412645e-16  1.1325633212640341e-43  -3.9002741032720586e-32  -1.0893162198965435e-30  -9.7017003717461721e-34  7.5053700321961712e-40  -3.5761368897229479e-41  1.1987773603909302e-09  3.4862223204243040e-37  2.3271385423309844e-21  1.8603450025351657e-16  5.4585960986701183e-23  1.4543010590050757e-19  3.2340999768073517e-21  6.0361533524456664e-58  4.5109362192725392e-53  -5.7189417611707619e-68  -3.1325809914471629e-56  -2.4892775232520071e-38  2.9283452328571404e-46  -6.0275373332980527e-31  6.2042999741646862e-06  5.1155893281182098e-13  -3.7025572492031375e-61  1.2421423676477313e-23  -2.7551625604559866e-32  2.3639146991521880e-43  -9.5922528279189203e-37  -4.0426918920135088e-30  3.4703531736908414e-39  1.8139583767834541e-62  -3.4026101830051235e-47  -6.3890115788125827e-51  -9.2326328463604623e-42  -1.5593869247286428e-46  2.0562869946845426e-48  -6.0897889242122106e-45  -3.7803416982237677e-21  1.7604084050475079e-17  2.5021998395843756e-24  1.9572619869705303e-10  5.3233330937969956e-11  2.2875821114846658e-47  1.9070933093199591e+00  3.4621310904311815e+02  -1.4074370131175738e-54  1.9013719750254586e-17  2.5016896899854969e-19  -3.4092624515206443e-21  -6.9726065487060120e-26  5.1448880584752964e-44  2.1563356151740129e-37  3.0956524372921921e-52  -1.7608500389005586e-50  -4.1126629132715787e-52  2.1196948195498387e-51  -3.1347612137113738e-54  8.5511601534040652e-54  -1.1480628473472908e-52  -4.9846955575603398e-54  -3.3530072039584324e-37  -2.2122229274779037e-48  -1.2291346169516436e-23  7.0193338284692488e-06  -1.1063609126034171e-03  -3.5529373553149870e-25  -1.7063913222717912e-31  -4.7093914207882550e-38  1.9279944727928415e-58  -1.5936795829088432e-63  9.2989472757258836e-49  3.9816722410198321e-29  -2.7102558312031573e-65  -2.7731931249268127e-42  -4.1647925557570049e-32  -2.0395056127013602e-35  -4.0330807921948120e-39  -1.8745630408350447e-44  -1.8670802524283955e-05  1.2832774406563453e-06  4.1580156641157314e-46  -8.2843819296721167e-49  -2.1243285655941635e-37  5.0388800699986160e-46  1.0011994933824172e-48  -2.0863360555699696e-12  7.4545708368829126e-42  7.6850250080967111e-38  -1.4718440601349075e-29  -2.0048706454531919e-57  -5.2752627983362065e-38  9.9825442126387493e-49  -2.8710090690436968e-41  -4.9750283475835354e-46  3.8165656902662217e-44  -4.1268185440740690e-51  2.1245278805853788e-50  -2.0570984831200893e-27  1.6360783499493456e-16  -4.7245258149601367e-41  7.0979912878694408e-30  -6.8580318578734445e-59  2.8071586053068232e-63  7.0392705904584427e-39  4.2139173489301201e-46  2.5511822177569197e-50  8.9571704349611741e-19  5.5767381265366675e-29  2.0892107608943900e-34  -7.2915050000256445e-51  6.7414083742663918e-43  2.0143993786490311e-44  -2.3501313049393267e-36  1.5438797006295485e-36  -1.7780601950581028e-31  7.5329194830181170e-32  -7.7067206985732609e-14  1.5234873146783468e-45  1.5913891389868548e-25  -4.2817213014239797e-43  5.7073125317723507e-59  -6.8155083591098070e-58  -5.4749581012286648e-33  2.6635287429977134e-14  7.8365684611777456e-30  -1.0276581171299703e-34  1.8323305959415080e-07  6.4586270335571317e-03  7.3645919813965169e-33  4.3001718541615667e-45  -1.1878046867200289e-42  5.9527915487789711e-38  3.7588264659409233e-13  -6.3211683769751123e-56  2.0255901359230220e-24  -1.2171239905084782e-27  1.6472953989776396e-27  5.3159469744738124e-21  1.6822112039889178e-21  1.3441229212725018e-44  -8.3694776707792339e-48  -1.5383157518200114e-43  1.2672947155640561e-39  -4.2147051714526613e-08  -5.7007404632843577e-09  4.9427385272632286e-44  -6.2665974972146452e-42  2.1125759857665414e-33  -3.2563397739195239e-16  -8.1928149156445685e-36  -9.4357064434508644e-31  4.0455301761725364e-14  -4.0987512099621548e-51  -4.3000248169327866e-37  -2.7263036619133836e-37  6.6222089029630859e-56  1.9712505863599414e-60  -4.6292029363481525e-44  2.7842436966567495e-45  -1.2127376828627921e-45  -1.4037811573067751e-43  2.3538971596092158e-41  -3.5571257966115488e-43  1.1705989106504573e-40  1.6031697759211962e-40  1.0217547049372289e-41  1.5931867341510589e+01  1.0262903917353671e-02  -4.4300972354673819e-02  -1.1882510318393685e-42  4.3750515397524840e-48  1.6972397668809837e-48  1.8469175744518262e+02  -8.9888459889280864e-34  3.3541639824512073e-22  1.0759223818924785e-21  -2.5802510570444615e-26  3.2259377810881184e-41  8.8573222519762987e-42  2.1903415738711088e-24  1.0930096953657193e-37  2.3601711352181356e-35  -7.5187496025009928e-48  -5.7326986505566282e-52  -6.4678210589131525e-64  1.2147971716680363e-12  -4.8512219661731009e-39  1.5132982527207532e-38  3.1782274984238853e-33  7.7059275427525229e-52  9.5195207165360759e-41  -2.3420620098703090e-37  3.6638569776259124e-16  3.4802027178864709e-34  2.9796992556512004e-38  -4.9942267268152691e-45  -1.7517909490465415e-15  -3.8936008189290905e-50  1.2542078368345983e-46  -4.9175553114273846e-19  1.0727544258227263e-51  8.7928680942255114e-10  -3.7726100004412684e-25  -4.9603506658772684e-52  3.6222742685997764e-53  1.6126147768073996e-39  1.0118420071638538e-52  3.6029025910744022e-27  -3.1262734377293225e-25  -9.0159985912905409e-54  3.8630712449950424e-49  -5.3880736228135153e-23  -4.4429057595842353e-30  2.3801852850223417e-36  2.4432783470354569e-54  -3.8997563799479787e-32  5.8058145670623382e-56  -7.0086967927254559e-50  6.3365547033233347e-34  6.1717490891732418e-50  4.5784967471994181e-28  5.2353976809674921e-12  1.3160143881241907e-09  -1.9764879932376414e-07  1.6276229283260990e-33  4.6814550923746856e-31  -1.5012370561157331e-19  -2.6536113362798564e-52  9.1757292151398498e-53  7.6042069433875050e-54  1.7954238568044869e-46  6.5094342812133094e-68  2.9295539071517979e-47  6.9531950829241184e-48  -1.0284332592099008e-28  -1.3186570254092592e-62  5.8553894560628750e-31  -1.1838341609745908e-51  1.0403103776588056e-42  -6.6622136464274667e-40  5.0514250367262378e-36  1.5301930006437345e-27  5.4398574661525092e-07  1.3070269961485669e-58  -3.8824706272922509e-41  -4.5062322570275398e-27  8.9432495215208810e-27  -1.7098303244168797e-54  1.3122309852325893e-19  8.8507659398829688e-19  -2.7634289341082867e-18  -2.8287540347652519e-22  1.2023652101388927e-41  7.9254975983057850e-28  3.4378953137105905e-39  1.6502461316057761e-35  1.6744111757813883e-43  -3.3780202586779597e-45  6.2383740912296018e-50  -2.9017336091789539e-33  -3.5972465157469715e-23  2.2515922817138149e-12  3.7066030527436592e-46  -2.0613842146070597e-13  9.6822978157932253e-22  -1.0178868414657866e-56  7.9809472315217828e-38  -7.7088781300181245e-33  3.7131297360794849e-55  3.1448774070045240e-29  1.7328741107272011e-05  5.6816236664019231e-16  -4.3117248414002556e-43  -4.0312701833358851e-47  5.3492299022820772e-36  9.0023052815348334e-45  -4.7507802451911205e-55  -2.4489293027553942e-30  1.3742460196512870e-16  -1.7450696124822520e-43  -3.1885646967396010e-25  -4.0428127714771949e-27  -4.8897256307485424e-26  9.0299354279880247e-44  -1.1475516260999924e-33  1.7471252894566548e-29  -3.7603067129200876e-41  -2.4651118908761276e-12  8.7556981305326281e-22  2.3155330041429517e-51  -4.0017208799925953e-31  -2.2347832217906805e-45  -1.3687259303864887e-50  2.7795651925497316e-53  -8.0844288807262653e-27  -4.0695030961472748e-22  -8.4684924232308458e-38  -3.0205922228795270e-46  -1.0445690254939694e-50  2.0316995190504716e-53  1.5408624648857860e-12  -2.6816368538806314e-33  2.1144205440543991e-50  1.5829364027246274e-47  -4.7463377845600416e-38  -5.3874626151818201e-23  3.6330739861428921e-41  -3.6827707629416545e-25  4.3706726417308775e-49  1.3873718558371448e-12  -4.1740509715770113e-49  -8.7261236099221165e-34  -2.0689508762907746e-25  1.3022506150612439e-36  -2.7635182756059268e-66  1.6396442706416012e-21  4.2029117172966429e-44  1.8003414006096099e-31  -1.9326962742165349e-16  7.6593369966987115e-41  9.6507964696771070e-38  1.2328968477294282e-17  4.4191535733884684e-51  -4.4192889886042805e-61  6.5557272993910965e-51  2.0933431157515927e-53  -1.2569610266029861e-21  1.3847900555429261e-14  -4.2358581549403605e-32  2.8660251760707159e-12  -4.3153737976733458e-43  -2.3920497297747045e-31  -4.2657306293813296e-22  1.1282850328203882e-38  -5.6595582477098051e-38  2.5063831561434617e-26  1.1119582588202946e-47  6.9988091798470807e-17  1.9403222690048150e-30  -7.5590989036113791e-10  -1.1366787676094866e-35  3.8265214668234278e-15  -8.5236788452531494e-19  6.5583511297674498e-21  -1.2877798073777584e-25  -1.2553929533808373e-24  -3.7407985213230691e-41  7.0937594934911866e-44  -1.1207436068966092e-38  -1.5619340671499638e-08  1.0039506954164479e-50  -2.2016429969986446e-57  8.7018876135321626e-61  2.4670475659396562e-47  -3.7615630922499330e-23  -8.1655325371946705e-59  -2.1924870083711888e-16  8.6567708352170058e-19  2.9962428677880048e-24  -4.4530352707913611e-45  3.5643938752583002e-30  7.4903619941844941e-28  -1.4716653753025484e-51  7.7360078900653054e-34  3.4827464730613997e-54  1.8322273961040708e-51  1.2888970217737506e-41  -9.9763351759690716e-54  -9.1004712512903894e-38  6.8936464259544273e-59  3.2890039100603730e-41  -2.0961218855223323e-35  2.4528030114845437e-30  1.9266308651458533e-04  -1.0923862968033411e-47  -2.2974915405437989e-46  -4.0139349418523351e-51  1.5421726015594503e-17  -1.4008816686449427e-38  -3.5926869176304743e-36  2.6589585691270207e-39  4.9575871952676196e-61  2.8977517611035710e-18  -1.2512452210028346e-46  -2.0351908911950489e-20  6.4860167720929881e-19  2.6792067462447821e-42  -2.2243843204450261e-33  -9.0842944125808800e-41  -3.5317336791796369e-51  4.0126888105810113e-49  1.1848745661505974e-19  2.2030682643517927e-14  5.4516246130334818e-34  2.3878939266922984e-49  2.0897580698464287e-45  -6.7438360641428025e-38  1.1670210395973275e-37  -1.1738610373130669e-39  1.6656681482583116e-47  -1.4611340533810498e-38  -3.8028953983192185e-54  -6.4072681277854861e-44  -4.3466771664784487e-23  -6.8933070116787489e-51  3.2272755899307310e-47  1.7148976956196018e-43  -9.8631834400328680e-44  -1.3111961446140961e-59  -5.3148379397984922e-58  7.3194972508839305e-57  -2.0554642930490842e-45  2.0359533453315150e-47  7.9149635151621891e-43  2.7954508728935021e-19  1.6765022862977207e-19  -6.3578248887010258e-36  -1.8200488997597738e-54  -1.6061742883092705e-58  -1.6399271549912103e-38  1.3002646851980361e-63  6.2350718692736459e-62  6.6512598493452601e-29  1.3082319115375754e-31  2.8931288368205741e-44  3.2465934921888250e-43  8.1082481405782967e-37  -7.5942530576722028e-20  -1.8135631069356115e-49  -1.2143470662576906e-48  -2.9238627633498488e-42  -5.4545602004343603e-04  -6.1989747618069332e-06  -4.5485295397474740e-07  -4.4696724382768500e-41  4.6104272735702093e-44  -2.1281847077664015e-44  -2.3003078537619725e-12  -6.8617151384806318e-52  9.2079929251824001e-46  -1.4827079306681616e-28  2.2657228243810266e-34  -3.8563861246671822e-48  1.4403497516189751e-66  2.0093757722252689e-39  3.4430268861649742e-57  3.2934345635024613e-64  2.2720562737801044e-11  -4.6485136397017835e-28  -1.7889731780760912e-39  2.9743275248122056e-49  1.3992216023844391e-53  4.4356977209952321e-36  -2.6815219932875646e-47  -1.4226582806309937e-10  -7.3674063041418766e-34  -6.4081492328166763e-62  -1.1016642041909522e-33  -1.3493091983299288e-15  -8.1748829316228224e-27  1.3951114044668135e-45  -5.0373112348152713e-24  -5.1176592875726779e-30  -4.3373644650348504e-21  -9.5789786384316128e-50  9.4190773780524938e-42  -3.2823418294366011e-04  -2.0394365778583779e-24  -8.7910459755728647e-13  8.7641758221045473e-10  3.8720468309833789e-13  5.9716165980296804e-09  1.0406090093675506e-08  -1.1080214074310281e-51  5.7919110339582991e-54  1.5128678974406693e-34  -1.3939992223012345e-32  -1.0951302684229041e-31  -2.9480556082300031e-26  1.3840359354370049e-01  -6.1840216210079003e-48  -3.3129127002119975e-49  -1.1499990543254264e-18  6.1585181110087749e-57  1.8219171407263429e-45  1.2193284798549445e-59  -1.7868047045765245e-44  2.5128694592442233e-58  3.8243968893185908e-23  -2.6263771754728195e-53  -7.4042885779587993e-32  -4.1575896859084220e-50  -3.9700374594353247e-51  3.1253850890386488e+01  3.2258868659842006e+04  -8.7167819059452475e-55  -2.0850069619401897e-22  5.0009846897378118e-65  4.3392285092663156e+00  -1.0920563838971376e-40  -3.3388605940463813e-46  -1.2833094980996140e-15  3.4078752502317348e-18  -5.9088000948542839e-38  1.5750662781019595e-48  -3.1762348020434044e-34  2.3456612142823002e-20  3.9447464194455118e-61  -7.8601767966512013e-05  3.2554607199666946e-40  -2.2332145163362217e-39  -1.1437943301094293e-17  1.3313535611410600e-47  7.3277965392198224e-09  4.0102178842723186e-33  4.3941537099572346e-45  7.9312309721996133e-42  -1.6707589304704997e-40  2.9465415371292726e-56  -4.7473247972847136e-31  -1.2962566095153868e-41  4.8516621123894027e-27  -8.8642228127075219e-43  -6.8692327049069217e-46  7.4889529659613335e-51  6.6963793377627611e-52  1.7978461616745231e-41  2.6068892238116767e-22  -1.5111021487070017e-54  7.5062725844521712e-54  2.1267366910374639e-20  -7.6676908327385364e-66  -1.3155961115438159e-51  1.0741052779682064e-62  3.2504070629455674e-46  -1.5479525483577581e-48  -1.4378520303463497e-54  1.6963099132719826e-31  -1.9851873268339017e-51  1.9118436557882281e-57  -1.1952429758868648e-30  2.9780201936273504e-28  7.1671150864180824e-54  -1.4789411982421928e-52  2.3481360588052466e-56  -1.8358736195573148e-16  4.0349679409010308e-18  3.9061967848251994e-23  -1.6132598238585234e-54  -8.6405307862234051e-10  3.1787452947289205e-14  5.7448438850253803e-34  3.7792862697291175e-36  1.4976666745005158e-49  -2.1649558166986431e-02  -1.7717288627609588e-43  -1.8001411537610337e-47  -1.1434961482489989e-07  1.1491746314690641e-25  5.9202447883348526e+01  -3.4691220016316665e-02  -1.0543224550378068e-60  -7.5748953700923537e-67  7.7311037254518050e-70  8.1167619145503725e-69  -1.2928762313508330e-26  -3.4065545402329089e-56  -2.4856163296660574e-05  -5.9805469058179296e-60  -9.0727526723997310e-66  5.2737189532660374e-48  4.6793087612411881e-39  1.5639361859521014e-48  -1.9613939290867493e-35  -9.3869626991971099e-51  -1.8575392188213960e-30  -3.3387731454500831e-53  4.9451522068368065e-13  -2.5590905332156831e-12  -1.4749933486206279e-10  4.2957140509756129e-55  -1.1506525561887351e-06  9.8347559785203199e-21  -1.6459084945215305e-07  3.3586950504377946e-42  -4.6060830031528276e-26  1.6475218379128593e-22  -1.9598380554647157e-44  1.6372740580393662e-27  -8.7002491346150876e-29  1.6201930477812508e-31  1.0600606821065495e-23  7.6315230097505787e-09  1.5654384253407055e-06  1.8032690944757226e-48  -3.8776927038497181e-45  1.9840881355025748e-41  3.1106540168464724e-46  4.2466999713758959e-15  1.6001899304727115e-53  -2.1426881831807418e-29  -2.6549988021503477e-44  -6.8472302327815988e-28  1.8777403411480987e-16  5.0859121690233361e-37  1.2325610809859466e-40  1.5840892227121322e-28  1.8067874219700693e-22  4.0173744469517437e-24  -2.2874540807092894e-39  3.3099924241373495e-50  1.0544647189680204e-16  1.7510395833542356e-46  4.4676325777014398e-47  1.6849322844857761e-30  -2.2131157087841914e-36  2.3621633513763003e-17  -1.4389220472620696e-41  -2.9974850853735887e-13  -1.0262895651497436e-53  3.8034744970162577e-33  1.7110893163927503e-34  -4.8397838698021282e-51  -1.2639031435091298e-45  -4.5387326734482836e-44  -2.1780903652316467e-47  -1.0376021179216432e-45  -7.1362079488683744e-45  3.3048655157702302e-26  4.1052312279449786e-45  -2.5956754888391686e-35  -1.3740389932215503e-27  -1.2514827302128157e-37  -1.2984073189292187e-38  3.9913959093447379e-53  1.0975860334411147e-34  1.0456190048795541e-38  4.4332623844836630e-38  -3.9513232511936172e-42  1.0562087718520852e-43  -2.7854159919463247e-30  -9.8048601598384328e-33  -1.6394903341449882e-34  -4.8701158074383739e-26  -2.4430931458884441e-41  4.6036575615405998e-50  -1.3813346808930353e-52  3.9085056284282788e-45  -1.2677451865546307e-42  1.4605833808145659e-45  2.9246841452418788e-54  -1.2327875526064201e-40  1.3065459336720237e-27  -9.2461471683266250e-52  -2.6286968726279285e-52  -1.2139968388471554e-47  -1.1730718790396806e-36  3.5267295839136099e-29  -1.8595030294897225e-20  7.5906220594011875e-40  -4.0590455498693878e-37  8.1774606963853352e-20  8.5286480675487621e-25  1.4632543702344645e-56  5.5378141593619914e-15  1.4414880372141773e-35  -1.3772988695566368e-57  1.4081335333286794e-56  -7.5921296849311387e-62  -3.2149424691006700e-44  -1.5016346044769338e-49  2.8683484520090195e-27  6.0979164777338281e-40  3.9067963132513450e-35  5.3695954787457308e-24  4.5960468841093085e-48  1.1088686317913928e-50  4.3038066977221081e-37  -5.5096891779762096e-43  9.3322062643413861e-24  -1.7627141476255888e-36  -4.0486209129494491e-27  -4.2971205831659048e-25