<?xml version="1.0"?>
<VTKFile type="UnstructuredGrid"  version="0.1"  >
<UnstructuredGrid>
<Piece  NumberOfPoints="6454" NumberOfCells="12638">
<Points>
<DataArray  type="Float64"  NumberOfComponents="3"  format="ascii">0 1.5 0  0 0 0  1.5 0 0  1.5 1.5 0  0.75 0 0  1.5 0.75 0  0.75 1.5 0  0 0.75 0  0.75 0.75 0  0 0.375 0  0.375 0 0  0.375 1.5 0  0 1.125 0  1.5 0.375 0  1.125 0 0  1.5 1.125 0  1.125 1.5 0  1.0625 0.4375 0  0.4375 1.0625 0  0.5625 0.375 0  1.125 0.9375 0  0.3854166666666667 0.6979166666666666 0  0.8049568965517241 1.130387931034483 0  0.28125 0.28125 0  1.21875 1.21875 0  0.2175662878787879 0.9079071969696969 0  0.5625 1.303571428571429 0  0.8290441176470589 0.2738970588235294 0  1.303571428571429 0.5625 0  1.2578125 0.2421875 0  0.2421875 1.2578125 0  1.010416666666667 0.6979166666666666 0  0.2051282051282051 0.5216346153846153 0  0.9856455736880344 1.297298524562678 0  0.7653719096334186 0.5079390451832908 0  0.5481770833333334 0.8606770833333333 0  1.039462506743128 0.2044177382376396 0  0.5828641541157527 0.6178675878563986 0  0.9136904761904763 0.8913690476190476 0  1.3125 1.03125 0  0.6409183354192741 0.1798341677096371 0  1.281668526785714 0.7820870535714286 0  0.1875 0 0  0 0.1875 0  1.5 1.3125 0  1.3125 1.5 0  0.1920012972225798 0.7153938510340165 0  0.4043073677566794 0.4982626425332328 0  1.054735085357395 1.117171638214202 0  0.9375 0 0  0.5625 0 0  0.1875 1.5 0  1.3125 0 0  1.5 0.5625 0  0 0.5625 0  0 0.9375 0  0.5625 1.5 0  1.5 0.1875 0  0 1.3125 0  0.9375 1.5 0  1.5 0.9375 0  0.4468932545895913 0.1802144181965304 0  0.7987562970593343 1.318357727289711 0  0.6320399113235965 1.037924776639822 0  0.2603996068459564 1.080712106845956 0  0.3802379261363636 0.8658558238636362 0  0.3950892857142857 1.331473214285714 0  1.229910714285714 0.4095982142857143 0  1.13745405880473 0.5879074784276126 0  0.7482946595664349 0.917427298948138 0  0.8625423372573767 0.63562835295355 0  0.9012540315035069 0.4192242537897745 0  0.6862861647268528 1.220560482834343 0  0.1224516396650128 1.023194379059598 0  0.125 0.28125 0  0.3042571223994863 0.1326690407998288 0  0.4149781713917952 0.3488154858246145 0  1.359375 1.171875 0  1.3359375 1.3359375 0  1.131854448751258 1.346034816250419 0  0.84375 0.1212988551125148 0  0.1361607142857143 0.1361607142857143 0  0.691638521804216 0.3135510227244841 0  1.131379139752747 0.7872570780892659 0  0.9688853304056201 0.5429870982608649 0  1.134057265332395 0.3075921335077801 0  0.1060987903225806 1.21875 0  0.1387129645862553 1.361715427487219 0  1.393901209677419 0.28125 0  1.361287035413745 0.1382845725127811 0  1.21875 0.1060987903225807 0  0.3601433665263453 1.180455866526345 0  0.5483798738512705 1.157949853770241 0  1.36815753200686 0.4172967302747542 0  1.187531723571597 1.085953361785798 0  1.401785714285714 0.65625 0  0.65625 1.401785714285714 0  0.09804407994526333 0.84375 0  1.402254384056937 0.84375 0  0.28125 1.403363735808893 0  0.925464184745229 1.040966878346683 0  0.9340282126721275 1.174186719212852 0  0.8797957988728348 0.7651628218565172 0  0.9934051945542568 0.3266495984636094 0  0.203125 0.3887553418803418 0  0.3141644363520071 0.590454276924375 0  0 0.46875 0  1.254999444628736 0.9118761107425289 0  1.03125 1.5 0  0.3213923331757561 0.9738827583030052 0  0 0.65625 0  0.1159730568910257 0.609375 0  0.5141588149450601 0.7319349350549398 0  0.5326188770927806 0.499793044891493 0  0.6693710930845284 0.4331752184013763 0  0.7121702197229691 0.6260790780451906 0  1.234475471272342 0.6664938523856012 0  1.098390770327214 1.229886041743451 0  1.013464781580893 0.8203484622190179 0  0.2952629260823795 0.7791860223918741 0  0.4928385416666666 1.401785714285714 0  1.21875 1.5 0  0.6298376402880013 0.7702339567996885 0  0.7848608254810038 0.3893687681820236 0  1.5 1.40625 0  0.4622923140598757 1.236370233688302 0  0.4667991207677928 0.9473088592382519 0  0.2981266305022628 0.4537778927841646 0  0.84375 1.5 0  0.9008085981204581 1.384216576384643 0  0.9616882272291621 0.1155730914816442 0  0.5035849743784865 0.2782669836795798 0  1.009598009491631 0.9590831193486247 0  1.105310675430652 0.1118663280349183 0  0.9288474621627256 0.2227857609567891 0  0.7464170347051563 1.031945227193052 0  0.1125198733612451 0.4565759846003609 0  0.841690222029119 0.9722978654718903 0  0.4672907609250232 0.5973206048957169 0  0.5437787095683263 0.1151781905475824 0  0.7536044163845748 0.1896192335637668 0  0.65625 0 0  0.7049920363331066 0.09569941760663599 0  1.40625 1.078125 0  1.39081588470667 0.9535067694133395 0  1.40625 1.5 0  0.6375104178177308 0.9268732242701165 0  1.003645772935292 1.399729634730415 0  0.1610182417168329 1.124880958145783 0  1.304862449892061 0.3348605478786471 0  0.8685031591756179 0.5174815394805063 0  0.203125 0.2142857142857143 0  0.46875 0 0  1.236252628961601 1.388617949258287 0  0.6528472422531054 0.5380411271234069 0  0.8059365139027533 0.8342920789922936 0  1.210984939277725 0.5129097255512943 0  1.166392387042105 0.1947779113806861 0  1.03125 0 0  1.112027098777656 0.6868999874317245 0  1.4091796875 1.2626953125 0  0.7056210334910562 1.122831931927321 0  0.8445532731910484 1.225781273471752 0  1.401785714285714 0.5192199888552865 0  0.5315992325579575 1.02511262900491 0  1.40625 0 0  1.5 0.09375 0  0.09375 1.5 0  0 1.40625 0  0.09828267889765753 0.7453580504435201 0  0.2137299928547555 0.6195416563936835 0  0.191293077366709 0.8134420362003882 0  0.395652989337951 0.09620832696794322 0  0.3786395303236629 0.2546156254865724 0  1.105082759698279 1.033286095599126 0  0.09375 0 0  0 0.09375 0  1.269539180892899 1.136742542678697 0  0.4693126788152344 0.427799606155492 0  0.6022922682526717 0.2709632077670539 0  0.286537769267488 0.682999829576168 0  0.431696207163009 0.7833932160815852 0  0.6864071374811688 0.8459705255349474 0  0.7528727250742914 1.403406392299215 0  1.40615841291152 0.7499896558614008 0  0.46875 1.5 0  0.28125 1.5 0  1.5 0.84375 0  0.65625 1.5 0  1.5 0.46875 0  1.5 0.65625 0  1.21875 0 0  1.5 0.28125 0  0.84375 0 0  0.28125 0 0  0 0.28125 0  0 0.84375 0  0 1.03125 0  0 1.21875 0  1.5 1.03125 0  1.5 1.21875 0  1.203254432787244 0.991934092179911 0  0.7018429057870754 1.316240552056942 0  0.09232383443139219 0.9359101690420062 0  1.40390625 1.40390625 0  0.2348931380369949 0.995323396873026 0  0.3477301897825538 1.059746137541629 0  0.2397198755521273 1.168072125048833 0  0.21928098141281 0.08974206793316726 0  0.09164332482786468 0.3669827664371529 0  0.4604861261832766 1.147925083553434 0  1.208242546284113 0.8346339808272811 0  1.042270885119771 0.6063462845058686 0  1.320424270852333 0.6988339884515781 0  1.018211345242011 1.19612913087091 0  0.3232572989405801 0.3642302377411452 0  1.219683471513571 0.319825657354259 0  0.9022918689243919 0.3281052118114913 0  1.209245485719643 1.305564994554257 0  1.051234566759267 0.5217852582666107 0  0.3673510104646698 1.413627432420576 0  1.295769937043816 0.4720643981603306 0  0.3072023010063974 1.318381411439101 0  1.141690261405714 0.3964585327199988 0  1.132920129606929 1.151700997493917 0  0.4797323103182937 1.318677829548113 0  0.8975459458359925 1.296170152543854 0  0.464209749529605 0.8633392490855897 0  0.2934839260221656 0.8659218053661386 0  0.5291505402246311 0.1980703646347806 0  1.129554686622487 0.4893579115624633 0  0.6803878781969045 0.7035160631177291 0  1.32373046875 1.25048828125 0  1.32216796875 1.41767578125 0  0.5499851861317793 0.9439128053349233 0  1.022629866909724 1.040850270203209 0  0.5745442708333333 1.417645342938312 0  0.6210905905518814 0.07817000059074161 0  0.8251326424747147 1.051763251304391 0  0.9840195129520318 0.4094589843317338 0  1.335304710332526 0.8922471458140904 0  1.056578658899854 0.8909713350312058 0  0.6311277392046407 1.158870891931624 0  0.08048866130562571 1.097266504752301 0  0.7899471681381695 0.5900550615276262 0  0.787583911300231 0.6744258112570235 0  0.9253568605083915 0.6931779950154204 0  0.6069241236579608 1.236016193461046 0  0.9754544598564333 1.105608345312828 0  0.5891224709431884 0.6993621756793521 0  1.20518939408778 0.7458807514137317 0  0.7661039078070937 1.202429845202379 0  1.160750676252366 1.424456431149488 0  1.07906062607374 1.432028171475168 0  0.3800251736020173 0.4214243130004857 0  0.9386398271504294 0.6156244973145778 0  0.0625 0.234375 0  0.203125 0.2933407738095238 0  1.215434655272782 0.5908176357312523 0  0.3862873976850203 1.253958025454808 0  0.9642783311550196 0.7603191879845486 0  0.07907187269262334 0.5337704210040105 0  1.05323270401054 1.338218592033867 0  0.7809244217906405 0.07297738156489482 0  0.8538188665025647 0.1992768958275427 0  0.9002757663302332 0.06810835486946346 0  0.3896574912364178 0.6177519597715768 0  0.8312147565658268 0.4504658003252042 0  0.6060876899209792 0.4769383705177015 0  0.6973120163099531 0.973865749266754 0  0.2220506518942812 1.34123409472246 0  0.2016535060668421 1.419937676612376 0  1.067204461774397 0.7475876083618238 0  1.126113744622621 0.8622904019182541 0  0.3283697934586307 0.06033102762239553 0  0.3141768357227177 0.2102768223058998 0  0.8836591735735614 1.110539499889141 0  0.9335121559963067 0.9650712587476813 0  0.489881977219376 0.3554687673286838 0  0.1635028372004782 0.9601830799237989 0  0.190064339368102 1.055218085849877 0  0.4693032589410306 0.1089149617768512 0  0.826087350728517 1.388004148744978 0  1.071391321568866 0.357735705332231 0  1.056880377786583 0.2807740346831144 0  1.3359375 1.1015625 0  1.4296875 1.1484375 0  0.3906148988360577 0.9415494491776595 0  0.06145603826933142 1.359375 0  0.06985309644022948 1.2846420920388 0  1.438543961730669 0.140625 0  1.43014690355977 0.2153579079612006 0  0.161811455697184 1.281243264907209 0  1.2989767800824 0.08251937661177217 0  1.282654529021692 0.1634516867188552 0  1.343324227095839 0.2175851507697937 0  0.5747241214300347 1.087143402580354 0  0.1502172474800126 0.06370164366342397 0  0.07677312842259779 0.08704698619211086 0  0.06709364565267519 0.1592134266688963 0  0.1305803571428571 0
[...]
<PointData  Scalars="f_11033-2"> 
<DataArray  type="Float64"  Name="f_11033-2"  format="ascii">5.5938096986288232e-42  -4.0258943742677204e-30  8.4011237239621791e-49  2.1018475541827801e-46  1.3153517754739138e-35  1.1754764310197182e-42  4.6896785746898855e-41  3.8782739030214827e-29  2.4853118602404025e-30  1.0590815696244216e-22  -8.7071650036362801e-29  7.9384881295371612e-42  1.1070610832043127e-35  5.0309752679724094e-45  4.1093021417352497e-42  1.6039564594892442e-43  9.0246161740281966e-43  1.8246107078812162e-35  4.2861740357434437e-33  1.2507846348811158e-25  6.4577444874616662e-37  2.0449605090892856e-26  1.9676977820589509e-35  2.5144135876414954e-20  1.6038437077048310e-40  7.5066927455624779e-31  1.6531684686911427e-37  5.8196625663163219e-32  2.1467242648880693e-39  5.7107732141430245e-42  6.7429607785252646e-38  5.2240646361011067e-34  3.8499210514063941e-23  4.7634520874327529e-39  2.5670720305116921e-29  7.8765775854766814e-30  5.9539622962271533e-38  4.4308789790927944e-27  1.0885878103904395e-33  2.7587143687958355e-40  3.5947549679984461e-29  6.3890573589102089e-39  -5.5133059535895532e-27  1.0040989517085775e-21  8.4367683171570746e-45  1.8341693980106113e-44  4.2797599453507075e-27  1.0649691715421572e-23  1.5219676215270235e-37  7.1424956978390479e-39  3.6458274518014375e-32  2.7452663778922908e-42  2.1829228586524218e-45  2.6998948367158470e-43  8.9347348639956814e-26  1.8683990765762319e-32  6.4652339764170105e-41  4.0226489543876941e-48  7.3031604600675476e-39  1.3295975429078037e-41  8.8159799250929442e-43  8.7720192601091932e-25  2.8336409850501016e-38  4.6622408977319708e-33  2.9294299173066522e-34  1.7325272490402240e-29  1.8964607620361639e-38  5.5142383891909248e-39  3.1364649732790093e-36  3.8195073565577880e-32  2.5333861073776712e-31  4.1571750765268390e-32  3.4412767446345400e-36  6.1943853120045221e-34  1.9471291506883217e-18  5.1674325975042473e-23  7.9604223218203758e-23  7.3159220649498021e-42  5.0339622972551119e-43  5.8207059043997354e-41  5.5726788541022784e-35  6.9577202635141519e-20  1.7631493212502935e-28  2.7749556774440925e-36  3.3615227540974813e-33  3.8922440407892301e-38  2.0047452972118506e-37  6.2202817267623271e-40  1.8396294021370735e-44  8.3672155432126729e-46  1.8024681156574926e-43  1.5702818807996014e-35  6.2091647407914062e-35  8.6600057015025388e-42  6.7493601759127666e-39  5.0678186336998468e-41  2.3423669731059149e-39  1.0730371322733466e-30  4.3768323584387701e-41  1.6400613762833643e-40  2.5146994631547188e-35  5.3381174127254572e-37  3.3436294118155375e-32  6.9494241426929631e-35  1.6652289678234829e-20  2.1689396478251188e-24  3.0900667292951082e-24  8.9259377042161193e-39  3.7263053345871472e-42  1.2894942151197560e-31  2.0915184129246420e-27  1.2573151232020638e-25  1.1876495811066820e-27  2.0477032922029853e-25  1.5511057498694097e-27  6.9696356623852965e-29  6.2636785918526046e-38  2.7695644358439402e-39  1.6230099550396362e-34  5.7798488354995041e-28  2.1636815806277359e-39  1.4367595080510893e-43  3.3121864612371249e-29  6.6393652611593773e-30  1.4519291051419456e-45  2.7497008141889178e-36  5.1412937889572738e-31  3.9115061403845253e-22  2.8037049184623871e-41  9.5761584332500479e-40  1.5083951871050106e-37  8.1955659013006183e-25  1.5106295103196849e-35  6.6420671627586690e-41  5.3515356611493989e-35  1.1684933611303471e-33  2.3011594274827056e-22  1.0312306095301822e-33  1.8352078516228286e-25  5.1350087971237039e-29  8.3831236609170166e-32  7.4330389914727269e-34  1.2809087163635370e-32  5.1906123358531576e-42  3.8182087556721332e-41  2.0388730744871522e-45  2.2539596622987676e-31  1.2199191672600657e-40  1.2393647980034932e-35  1.5990940313049845e-41  3.3794471549305636e-31  6.5510619987215899e-19  1.5289520741648086e-30  1.7375376811763061e-42  1.9417159999795135e-27  6.8339735882070343e-32  7.0834838198219685e-38  1.0680219661600690e-40  1.6656282088766606e-40  9.1326681732363555e-36  2.6978876844446028e-43  8.9520699962182209e-35  4.0584853352294846e-37  9.5705761118636976e-42  1.4820644326861642e-32  3.1860961006352351e-47  1.0239830846560790e-48  4.6885305386515306e-42  2.0033192924109681e-40  1.1805184764966595e-28  4.6105138158754590e-25  3.7133188044982372e-29  6.3391970934910220e-26  1.6539774820274928e-22  2.1486920529395906e-37  1.3345588767692171e-26  -1.3729130854393810e-24  1.8951140375251227e-40  4.6546746528720462e-24  5.2351999861828410e-27  3.8122928148413109e-26  5.0302278017335116e-28  1.1888376478562045e-30  1.5017266279665030e-39  4.0377813057901224e-41  2.9132230171113015e-41  3.6431215254814976e-42  1.2772739688759307e-42  6.4705418980546043e-41  6.3310485750529857e-44  8.3077633740298169e-43  8.7549941839020164e-44  1.8477784597402376e-46  3.0279913090000528e-37  1.6032019046384529e-27  1.3009404766108618e-21  8.2302837038755025e-31  4.4814079024390559e-34  2.6111696792081671e-37  4.0089047761455859e-43  4.1936326853705513e-44  1.7345485810941929e-38  6.9408463968086104e-38  2.3138921824924817e-32  1.6482093209365363e-44  1.4144623378381354e-32  4.2181715008415114e-33  4.5519979880246628e-36  3.9149335587402925e-23  9.9744155131744294e-21  1.1696249364645209e-34  9.8396337942261133e-38  1.4930649941757067e-34  1.5587494587020620e-39  4.8230790989974551e-38  2.2497710637075560e-21  7.8191378110830559e-40  7.3490022558687779e-33  2.5832200197766750e-41  1.0326932804172462e-34  3.5234354689624963e-40  7.6369889874009365e-40  1.0482540438088926e-38  2.7245247143485076e-37  8.5389516573056421e-39  7.8449133792338774e-38  1.7548450949035655e-38  1.5281955412559011e-29  1.4927742129982243e-29  2.2242388743262203e-26  2.3103667780070889e-36  4.8442130072774715e-29  4.5612064799295985e-42  9.0165793134956673e-44  3.6677639191195800e-31  1.7154841770577407e-36  1.3319469102539962e-39  3.2699500134790489e-31  1.6542442863619855e-34  5.3609032808427366e-34  4.9207298952872441e-40  1.2763158421718333e-35  4.7901860622830294e-35  2.6212595015613370e-35  6.4436258230393528e-30  2.6813563594838022e-30  1.4580950166143367e-32  2.1915580678389073e-36  1.4226710795994443e-36  6.0190456541694071e-28  1.4905655984862562e-37  2.7491015571267566e-36  3.1481955694486225e-42  1.3501268760869857e-41  1.0898865936487600e-22  1.2742894025653602e-32  9.1721439406927904e-19  4.3163707064273165e-19  1.2457562760984965e-37  5.9943176093050929e-37  1.6776822492852094e-33  1.2559546861823824e-24  3.7307185732480336e-40  7.1174099840604195e-35  1.2091433815263649e-33  2.7294521659994447e-37  3.8971658284278619e-25  1.1039400872991654e-30  1.9436616999546105e-26  1.8009221699674065e-32  1.5339053833118264e-39  5.1438170660995312e-41  4.3860115531196666e-35  1.7759852215316649e-36  2.3011883072779429e-26  1.6909796623698297e-21  8.5126876412883977e-36  1.2305028471400439e-34  3.1185586153543479e-24  2.1170568396293978e-32  4.0587752116436652e-34  5.5246130836685236e-27  1.5192839233313651e-39  3.1858969840724630e-36  5.7156866504885830e-37  4.4329316618078474e-41  9.8644152999871429e-43  7.4779917004056086e-31  8.9305765886852211e-40  1.8265364838365457e-38  1.6472799374234670e-47  3.8193850758230758e-46  1.6292980806730785e-38  3.8943646178309750e-45  5.0378559325285526e-44  2.8708893728118103e-44  1.1035518449460166e-33  5.6450579547831124e-24  3.1636472157682270e-23  1.4667503504630737e-19  7.3905907298375173e-18  4.7095996359543822e-47  3.4063770533925123e-41  2.6654504539211861e-36  5.4678517002663870e-37  5.5822287529021242e-39  2.0249352074155230e-30  5.7796385613903136e-29  6.9483394899370979e-27  5.6024335071491354e-37  1.3086687376958917e-34  6.5413869183267730e-33  1.7815786077557348e-26  1.3170098294116236e-33  1.2057467478113858e-43  1.2879919136100164e-42  2.0215518656053658e-36  9.2160457554543191e-43  3.7946995110214712e-44  3.4989543196647050e-34  4.8207512497679163e-35  1.6735036988784458e-32  6.9860308710360790e-40  1.1742288082067793e-28  5.7299764077202454e-36  2.9064045268211826e-33  2.1048499021877095e-23  4.1961493863533782e-38  6.7096916930525988e-39  5.9428328217689256e-30  3.8521658489095597e-23  1.6888357109652635e-40  9.2968353384366904e-30  6.5086427838086424e-40  5.5032286381109702e-27  7.4375732414645915e-42  1.0191903052758934e-22  9.4263984795415224e-36  1.3908497269610904e-27  2.1869553394854433e-39  1.2308040437768184e-39  3.4930090125348737e-40  2.8776243018460145e-40  6.2991911771433306e-30  9.6381306637008413e-31  3.3369738417772465e-40  5.9958738813010592e-42  1.6438593218987288e-26  1.8767777284533227e-39  2.5383264705518834e-40  3.8152778028231502e-41  2.7382860904511552e-42  5.2395756381457696e-38  1.1046929784403199e-40  6.9551907640492784e-22  1.5085777499735869e-19  3.2801880159536179e-20  2.6842154151534144e-33  3.1715883108684408e-28  6.5549373850594040e-42  6.2589253387542393e-42  1.6067411300108848e-40  4.1000539552233274e-41  1.5788917697290331e-45  8.3077351950309111e-38  6.5107393995793875e-39  2.3979364208809305e-31  1.5327522051248814e-43  4.6607394740899067e-39  5.6014881155563179e-34  2.6032913973936293e-37  2.4815427073155554e-31  2.1232245974010777e-31  1.3597636576528839e-31  4.9882584835284216e-42  6.5286264777682210e-21  1.1129852090613689e-28  4.6812084865884679e-28  4.4264115193553368e-32  8.0449682463967702e-29  8.2442918459072431e-41  4.7050929932025625e-24  1.9846902687424424e-26  1.9566025608826488e-25  1.8747165662259319e-24  1.1850065623235291e-37  1.1564129713151595e-40  1.8189756043239305e-23  1.0262337743052319e-29  1.3540931858052619e-28  5.3782867585156013e-29  5.0912057321493073e-24  5.5802689178536777e-26  2.8973486519483159e-41  3.0594114975159343e-41  4.2914750905948070e-20  5.1774361755628359e-26  6.3153532112077815e-37  1.1417845589402411e-38  3.9449862870762831e-32  1.5382885400824122e-38  3.9015820624503760e-37  1.3037263944944473e-40  2.0880965215993288e-39  4.4881087634439429e-23  3.8268990754396142e-48  8.5698067974635145e-43  2.4243304818585434e-30  3.1914208056154309e-31  7.1101171303495977e-33  6.9353188587701310e-22  1.9755765764671370e-35  4.2698445665312355e-21  1.3656011434450243e-25  4.1041329559745959e-42  5.4889007611675789e-30  5.6917335582286841e-31  2.7358777922205598e-36  3.4035775569083493e-28  1.2553479002178564e-26  3.5617651053824520e-38  2.2671279730738885e-39  1.0486326720248755e-28  3.2779231344099633e-27  4.8307520460616024e-34  1.8966495196434742e-36  2.2595670217255286e-38  1.1776425306771382e-39  1.9290595328808455e-30  5.2195032236714655e-32  1.9558797218167371e-38  2.0544600370529600e-40  2.0322697865150322e-42  1.1967373697872919e-32  7.6299589988448985e-33  2.1769920410486273e-36  1.1787948002063658e-37  1.2456644258485136e-33  3.9608117579756459e-32  2.5467178922174658e-28  1.9019696075903882e-42  6.2762430329166565e-31  2.9692317031764841e-37  2.8220357978734782e-34  1.4145126258112993e-27  1.4864530084284512e-39  2.6642016022007745e-30  1.1099201686265134e-44  1.3445368498215304e-24  1.4528019576297126e-35  2.6650456296169047e-28  2.8489858966909133e-46  1.4850134088025195e-35  4.7912036170068069e-27  6.5259132747062718e-39  7.2002453297601403e-43  1.3686918237760711e-28  1.8584710137346273e-40  5.9111359896009484e-41  1.9770662450415848e-35  1.2077835290762122e-21  9.1917465350324327e-24  1.4787740952210167e-33  1.8151593107748026e-28  1.3137324775495084e-44  2.7168166902981445e-44  6.4034538252039415e-29  4.0690233882842223e-24  4.2125189088034064e-33  1.5566544360049595e-34  2.2198162677283825e-34  2.1165085665180305e-37  7.7181258267043966e-21  5.6463957898571111e-42  6.0634917776753307e-25  2.8764426675057755e-25  4.0150392114633382e-30  2.7108655839623839e-32  4.0664178968646967e-33  1.2883281548536974e-24  2.5378480412050261e-42  6.6737508856549143e-43  9.8245674515698466e-42  1.2033844243322901e-39  9.8397768963369782e-27  7.7795141238287933e-42  1.0792375956138095e-33  4.7833281746768742e-27  1.2125459043381805e-31  3.0608028003946105e-32  1.3863076863644577e-30  5.2280401481364048e-20  1.6130877398493374e-29  2.6665766569528538e-39  1.4149268608340044e-43  4.4473688842623500e-41  1.7234770973445051e-36  3.9658572805817886e-40  4.4992701867718451e-36  2.4010198366273029e-41  1.4001712766748793e-38  2.4997149329072654e-33  -3.2216030177408363e-27  8.6988946743694826e-46  5.3135771250170969e-45  3.9432111168339134e-40  1.7183884445690039e-30  4.6401407400599960e-35  8.4545034587731030e-35  3.2259268620805115e-35  7.6811406150046030e-43  6.9483408221465716e-28  9.6226076059510606e-34  1.5736579543564598e-34  5.8248358494896235e-31  3.5331731495601210e-30  4.0323809084230323e-25  3.5311780220501324e-37  8.3839306927425321e-35  1.8410391497228205e-41  2.6678973577429056e-41  5.8304872546432664e-34  2.7824333994665949e-30  9.1584181105622138e-27  1.3553089225832760e-41  7.6287308964723561e-35  1.7709570960354156e-35  1.3433792275068005e-37  2.3203595177015102e-37  3.3535425901423283e-40  3.9314340213182163e-40  8.2439799407451871e-35  5.5457945628312244e-31  9.6762034543854539e-28  2.0875288878169624e-31  1.0154919126686448e-24  8.7449569217052855e-24  1.7468075439084830e-44  1.8354660432842625e-38  4.7731893038248952e-37  1.0403611501422103e-38  1.2143103119786166e-19  8.0560000354944127e-43  6.5193237048862760e-42  2.1261401699359184e-42  8.0536612350497248e-49  -6.4668624346625670e-27  3.4420740935921779e-25  2.2834494585851952e-41  3.8891653941537137e-26  5.7817696585944425e-26  1.7623846324766565e-33  8.1481946937160851e-40  1.8009398671990950e-41  2.9695766923691305e-34  4.1076052819181102e-44  6.7810282252138752e-43  1.5468851240457805e-31  9.0479374459661618e-46  4.8849907658242757e-39  2.0859271251936609e-38  1.8948402663407623e-37  3.4985210183081903e-26  2.5666488964364799e-38  4.2220181744169477e-46  1.8413483116999700e-28  3.4128851794520776e-18  1.4082666577415726e-31  5.0528847065163934e-48  3.0144024414769996e-36  5.1418709332293314e-36  5.2921511334662737e-25  9.6167855527352995e-38  8.6186762374390605e-44  1.6467470007828303e-40  4.9283942212706022e-35  3.5339773212027217e-32  7.1618252376043920e-45  2.1177807061500480e-40  5.9981746221144966e-39  1.5871301293182283e-38  1.9927820212826309e-21  5.5718364432574259e-41  1.1967652334327182e-43  7.1715098664683492e-23  3.2988243693685577e-40  1.1487204461070693e-42  2.2590544609356361e-37  2.1387274670706933e-35  2.3231943807686685e-35  2.5537877606863776e-31  8.1062972972672018e-44  6.1906199409219463e-33  6.2112183628280072e-25  4.7567049662848267e-36  5.5543459046296097e-28  8.6260769769664109e-28  3.3758783579267375e-40  4.7139044204215662e-36  3.5358365431870846e-33  5.8836938002673213e-37  1.3817786771924365e-29  3.1048253450554511e-27  1.5305073739526416e-24  7.7318009699518356e-25  5.2377656785446892e-42  6.0755495540861330e-43  6.4834002169067985e-30  3.2594391215770025e-28  3.4490483986748833e-37  1.1255388591075614e-40  6.0490847540021648e-33  3.8175655652910569e-41  7.9835218210582217e-31  8.9085199970462452e-36  3.1900307628115348e-37  6.3486659979385451e-43  1.6455337269098640e-42  7.6466433842928090e-38  6.3772978262457209e-28  4.4019260260625800e-42  3.5481652737466530e-36  1.0743109652370487e-39  1.5590081684285891e-40  1.8754725228143118e-36  8.6602992952147909e-44  4.8430776104254358e-38  3.4948397177493276e-47  4.9829074079226962e-37  1.7660918493667805e-23  3.1907467217978284e-23  9.3447067836135133e-25  2.5906049589557762e-27  1.2075387354371856e-31  4.5825440456015704e-34  1.1819356910639246e-38  3.9973724338151830e-43  1.7037821745662988e-21  -5.0494147638323956e-25  1.0631852598042922e-45  1.5327538255322481e-41  3.9405061338472333e-30  8.5086959402767286e-39  9.8255348742886633e-20  6.0536742744333055e-30  6.1959085793917408e-31  9.0169017154567409e-31  1.9804797383319414e-39  2.2384231874269112e-40  7.9022743699889160e-40  1.9324499316142584e-34  2.2194915092789252e-37  4.2519596037552435e-41  6.0279509490384711e-42  2.8661197310768211e-38  2.0929161456802382e-40  5.5001145875250434e-29  2.3395064797131583e-40  3.9867372317557605e-42  9.0390258204619342e-35  5.8337710190385100e-45  5.4022427770323091e-44  2.7757975154653574e-41  4.9441000169044034e-42  3.8694945271202858e-41  2.8956690724856360e-33  1.7262882293681813e-41  6.3115617812843033e-43  2.8148637235136879e-41  1.1522397409540950e-39  1.1458744136120095e-42  1.2491523189874226e-42  1.1163693223598576e-42  1.1729622994504974e-26  3.0860378428544465e-28  5.7185815448567703e-30  2.4680571240621657e-23  1.1571646225726097e-32  1.6960345507252992e-36  6.5265537878420864e-43  3.5540705536384768e-42  2.6201827236804011e-26  1.7368896887571300e-48  1.4001666969329126e-39  -1.6049767364618941e-28  4.8980294913856178e-38  -1.6307997984665151e-23  1.0614513375067668e-21  1.8226090969624048e-42  6.2878428602893502e-41  3.6783025820416144e-45  4.9479548901463071e-46  5.4125870395796200e-46  1.2345615547500407e-31  1.7733983187759367e-41  8.0954133342530049e-22  4.0365604629534271e-41  2.7941695872328634e-43  1.9094758402686437e-44  1.1558501520231633e-34  7.6580559395577634e-37  -1.0495280813070797e-22  4.5749802472823418e-32  6.6966833669720111e-33  5.8854504759071093e-22  4.2650396719631158e-22  5.9851805517670547e-21  4.7383461533811769e-41  -7.7349479919424321e-26  1.7458981572390275e-21  3.8289667984791183e-37  5.9105586261433869e-21  1.4665987605228983e-31  2.0881911252107940e-32  4.6817414721033522e-33  1.1178646505296349e-29  -1.3711268501381855e-25  1.1045136098478316e-21  1.6924049297832968e-19  3.2004518731317238e-40  2.4176121184644845e-36  2.4302492463704278e-39  1.3528113957353348e-22  5.2276111850115793e-32  8.0633524369566715e-42  4.2614780393527744e-30  7.6922870239370198e-32  3.6898469820294165e-33  1.7930581197032594e-28  4.0476266820768855e-24  1.4631228907236248e-22  1.8001437727541333e-34  1.1338158602180352e-32  3.4859664121894263e-35  9.6626114378925152e-26  2.5993213751332955e-27  1.4365014165507131e-45  7.5347983435744857e-40  9.4221319448365122e-41  1.8714550442224448e-30  1.3360481450732645e-23  1.5057666170681090e-39  8.4595281203577127e-41  4.7050864231162315e-34  7.7199047181031835e-36  9.2239824925345036e-24  8.4390473069202519e-34  1.2649751171716491e-40  6.9251432410317950e-29  1.6347476193641988e-38  6.7843922438184194e-37  4.6435308313384474e-37  2.7020727466970051e-38  4.8444294346636583e-38  9.5515943678279286e-31  3.6575749711214147e-32  9.7262622270494617e-34  2.8077152447142523e-33  5.3462291694436575e-36  3.9783456937278743e-35  7.0767951230491398e-39  1.2127087090437889e-29  3.6696812854830289e-34  6.3700622663646655e-25  3.3868344239799687e-36  3.1153935167747070e-37  3.0703312045426441e-31  5.7464576062429013e-39  7.8162705636977319e-38  1.9996588629251505e-33  3.6995402480474431e-32  6.6301908715481816e-32  3.9185569647255565e-43  1.2369133163308316e-39  1.0980979037725417e-38  5.5006099382416713e-38  6.4401241183186258e-39  4.9491382457154892e-40  7.0469190270827970e-34  5.0312355829693739e-26  2.0778400047350331e-40  9.5009869481467002e-32  6.3047957807374104e-34  1.6332172450239964e-34  1.2340345498331087e-42  8.9167869992891377e-28  8.5921494992878121e-34  1.7124338517395970e-43  3.8749937289710008e-34  6.7880325895610872e-41  2.1902220978324315e-22  8.8326166217875827e-41  5.8723365055169601e-33  4.8752837886341698e-41  5.4041871877857112e-41  2.3648070293871714e-43  1.4780318068028369e-39  1.6976403028891640e-38  1.1848446280072147e-41  1.0347155720059482e-29  6.3567025670794172e-33  1.3084060612325849e-23  5.1635918979321768e-28  1.1610845752002335e-38  2.1851418243818957e-37  3.3098393202930126e-29  4.6126156593589749e-45  1.5852199878704661e-29  5.2306233293783246e-41  2.8637062942818200e-39  -3.3724763919837144e-25  8.6607487542449945e-39  9.8311208408825623e-42  6.0941186290834972e-38  1.0597092897408507e-46  1.3313543644338228e-19  3.9713885540361965e-43  3.0417507892147650e-38  6.0225558167170362e-44  1.7806977141272017e-29  1.4215018773398921e-43  6.0265581866558623e-37  3.3885750102663692e-40  2.2559760159967611e-39  1.0272326711982738e-38  2.4893582159630045e-40  1.6532556201785750e-30  1.1850455621197944e-36  2.4533682609313822e-