<?xml version="1.0"?>
<VTKFile type="UnstructuredGrid"  version="0.1"  >
<UnstructuredGrid>
<Piece  NumberOfPoints="6486" NumberOfCells="12696">
<Points>
<DataArray  type="Float64"  NumberOfComponents="3"  format="ascii">0 2.5 0  0 0 0  2.5 0 0  2.5 2.5 0  1.25 0 0  2.5 1.25 0  1.25 2.5 0  0 1.25 0  1.25 1.25 0  0 0.625 0  0.625 0 0  0.625 2.5 0  0 1.875 0  2.5 0.625 0  1.875 0 0  2.5 1.875 0  1.875 2.5 0  1.770833333333333 0.7291666666666666 0  0.7291666666666666 1.770833333333333 0  0.9375 0.625 0  1.875 1.5625 0  0.642361111111111 1.163194444444444 0  1.341594827586207 1.883979885057471 0  0.46875 0.46875 0  2.03125 2.03125 0  0.3626104797979798 1.513178661616162 0  1.381740196078431 0.4564950980392157 0  0.9375 2.172619047619047 0  2.172619047619047 0.9375 0  2.096354166666667 0.4036458333333332 0  0.4036458333333333 2.096354166666667 0  1.684027777777778 1.163194444444444 0  0.3418803418803419 0.8693910256410255 0  1.642742622813391 2.162164207604464 0  1.275619849389031 0.8465650753054845 0  0.9136284722222221 1.434461805555556 0  1.732437511238546 0.3406962303960658 0  0.9714402568595876 1.029779313093998 0  1.52281746031746 1.485615079365079 0  2.1875 1.71875 0  1.06819722569879 0.2997236128493951 0  2.136114211309524 1.303478422619048 0  0.3125 0 0  0 0.3125 0  2.5 2.1875 0  2.1875 2.5 0  0.3200021620376328 1.192323085056694 0  0.6738456129277992 0.8304377375553881 0  1.757891808928991 1.861952730357003 0  1.5625 0 0  0.9375 0 0  0.3125 2.5 0  2.1875 0 0  2.5 0.9375 0  0 0.9375 0  0 1.5625 0  0.9375 2.5 0  2.5 0.3125 0  0 2.1875 0  1.5625 2.5 0  2.5 1.5625 0  0.7448220909826522 0.3003573636608841 0  1.027298850574712 1.871151477832512 0  1.331260495098891 2.197262878816185 0  1.207917681892289 1.582765010956622 0  0.4339993447432606 1.801186844743261 0  0.6337298768939392 1.443093039772727 0  2.049851190476191 0.6826636904761904 0  0.6584821428571428 2.219122023809524 0  1.89575676467455 0.9798457973793544 0  1.437570562095628 1.059380588255917 0  1.502090052505845 0.6987070896496241 0  0.2040860661083546 1.705323965099331 0  0.2083333333333333 0.46875 0  0.5070952039991439 0.2211150679997147 0  0.6916302856529919 0.5813591430410241 0  2.265625 1.953125 0  2.2265625 2.2265625 0  1.886424081252096 2.243391360417365 0  1.40625 0.202164758520858 0  0.2269345238095238 0.2269345238095238 0  1.152730869673694 0.5225850378741401 0  1.885631899587912 1.312095130148776 0  1.614808884009367 0.9049784971014416 0  1.890095442220658 0.5126535558463003 0  2.323168682795699 0.46875 0  2.268811725689575 0.2304742875213018 0  0.6002389442105756 1.967426444210576 0  0.1768313172043011 2.03125 0  0.2311882743104251 2.269525712478698 0  2.03125 0.176831317204301 0  2.280262553344767 0.6954945504579233 0  1.979219539285994 1.809922269642997 0  2.336309523809524 1.09375 0  1.09375 2.336309523809524 0  0.9314042474388009 1.662973812215543 0  0.1634067999087722 1.40625 0  2.337090640094896 1.40625 0  1.141616997467638 2.069311773587991 0  0.46875 2.338939559681489 0  1.542440307908715 1.734944797244472 0  1.556713687786879 1.956977865354753 0  0.8264238995344066 1.975424467820646 0  1.466326331454725 1.275271369760862 0  1.655675324257095 0.5444159974393489 0  0.3385416666666666 0.6479255698005697 0  0 0.78125 0  0.5236073939200119 0.984090461540625 0  2.091665741047893 1.519793517904215 0  1.71875 2.5 0  0.5356538886262603 1.623137930505009 0  0 1.09375 0  0.1932884281517095 1.015625 0  0.8569313582417669 1.2198915584249 0  0.8876981284879677 0.8329884081524883 0  1.115618488474214 0.7219586973356271 0  1.186950366204949 1.043465130075318 0  2.057459118787237 1.110823087309335 0  1.830651283878689 2.049810069572418 0  1.689107969301489 1.367247437031697 0  0.4921048768039656 1.298643370653124 0  0.8213975694444444 2.336309523809524 0  2.03125 2.5 0  1.049729400480002 1.283723261332814 0  1.308101375801673 0.6489479469700392 0  2.5 2.34375 0  0.4968777175037714 0.7562964879736076 0  1.40625 2.5 0  1.501347663534097 2.307027627307738 0  1.602813712048603 0.1926218191360736 0  0.8393082906308107 0.463778306132633 0  1.682663349152719 1.598471865581041 0  0.7774174680851571 1.560004941327907 0  1.554204170364662 0.3898593897892066 0  1.842184459051087 0.186443880058197 0  1.358107417651776 1.696381759610015 0  1.18859291992392 1.77598670078022 0  0.1875331222687418 0.7609599743339348 0  1.339536743965101 1.422080365801479 0  0.7788179348750389 0.9955343414928611 0  0.9062978492805438 0.1919636509126373 0  1.256007360640958 0.3160320559396114 0  1.09375 0 0  1.174986727221844 0.1594990293443933 0  2.34375 1.796875 0  2.318026474511116 1.589177949022232 0  2.34375 2.5 0  1.672742954892153 2.332882724550692 0  0.2683637361947215 1.874801596909639 0  2.174770749820102 0.5581009131310781 0  1.443279522965991 0.8870068372898454 0  0.3385416666666667 0.3571428571428572 0  0.78125 0 0  2.060421048269335 2.314363248763811 0  1.088078737088509 0.8967352118723447 0  1.087825368444708 1.454931510884769 0  2.018308232129541 0.8548495425854904 0  1.943987311736842 0.3246298523011434 0  1.71875 0 0  1.85337849796276 1.144833312386208 0  2.3486328125 2.1044921875 0  1.407588788651747 2.042968789119587 0  2.336309523809524 0.865366648092144 0  2.34375 0 0  2.5 0.15625 0  0.15625 2.5 0  0 2.34375 0  0.1638044648294291 1.242263417405867 0  0.356216654757926 1.032569427322806 0  0.3188217956111817 1.355736727000647 0  0.5924956460852111 0.36112522004736 0  0.6594216488965849 0.1603472116132387 0  1.841804599497131 1.72214349266521 0  0.15625 0 0  0 0.15625 0  2.115898634821499 1.894570904464496 0  0.7821877980253907 0.7129993435924866 0  1.003820447087786 0.4516053462784233 0  0.477562948779147 1.138333049293613 0  0.719493678605015 1.305655360135975 0  0.9772457618587566 2.020350128938537 0  0.8764738248887107 1.826219722709673 0  1.254787875123819 2.339010653832026 0  2.343597354852534 1.249982759769001 0  0.78125 2.5 0  0.46875 2.5 0  2.5 1.40625 0  1.09375 2.5 0  2.5 0.78125 0  2.5 1.09375 0  2.03125 0 0  2.5 0.46875 0  1.40625 0 0  0.46875 0 0  0 0.46875 0  0 1.40625 0  0 1.71875 0  0 2.03125 0  2.5 1.71875 0  2.5 2.03125 0  2.005424054645407 1.653223486966518 0  0.1538730573856537 1.559850281736677 0  2.33984375 2.33984375 0  1.166539506212474 1.922878979538754 0  0.3914885633949916 1.65887232812171 0  0.5795503163042564 1.766243562569382 0  0.399533125920212 1.946786875081388 0  0.7866324979014098 2.127719094551316 0  0.3654683023546834 0.1495701132219454 0  0.1527388747131078 0.6116379440619215 0  2.013737577140188 1.391056634712135 0  1.17635437372994 2.213329084238133 0  1.737118141866284 1.010577140843115 0  2.200707118087222 1.164723314085963 0  1.697018908736685 1.993548551451517 0  0.5387621649009668 0.6070503962352419 0  2.032805785855952 0.5330427622570983 0  1.082699501358059 1.667818725183932 0  1.503819781540653 0.5468420196858188 0  2.015409142866072 2.175941657590429 0  1.752057611265444 0.869642097111018 0  0.612251684107783 2.356045720700959 0  1.902817102342857 0.6607642211999982 0  2.159616561739693 0.7867739969338844 0  0.5120038350106624 2.197302352398502 0  1.888200216011548 1.919501662489862 0  1.495909909726654 2.16028358757309 0  0.489139876703609 1.443203008943564 0  0.8819175670410521 0.3301172743913011 0  1.882591144370812 0.8155965192707721 0  1.133979796994841 1.172526771862882 0  2.206217447916667 2.084147135416667 0  2.20361328125 2.36279296875 0  1.395746985657004 1.556054166359645 0  1.704383111516207 1.734750450338683 0  0.9575737847222222 2.36274223823052 0  1.035150984253136 0.1302833343179028 0  1.383966125325753 0.7651479963479179 0  1.64003252158672 0.6824316405528895 0  2.22550785055421 1.487078576356817 0  1.760964431499756 1.48495222505201 0  1.276460980673788 2.004207003584658 0  0.1341477688427096 1.828777507920502 0  1.542261434180652 1.155296658359034 0  1.334627911613854 0.9696897472490321 0  1.30794231473696 1.119420615785191 0  0.7028260459857245 0.4438906910721139 0  1.625757433094055 1.84268057552138 0  0.9818707849053143 1.165603626132254 0  2.0086489901463 1.243134585689553 0  1.934584460420609 2.374094051915812 0  1.798434376789567 2.38671361912528 0  1.206314791201715 1.382064292497919 0  0.6333752893366955 0.7023738550008095 0  0.7796219811205605 1.42573253164258 0  1.564399711917382 1.026040828857629 0  0.3385416666666666 0.4889012896825397 0  0.1041666666666667 0.390625 0  0.989112246382566 1.543537365516289 0  2.025724425454636 0.9846960595520872 0  0.6602885475034063 2.086117390485779 0  1.607130551925032 1.267198646640915 0  0.1317864544877056 0.8896173683400176 0  1.755387840017567 2.230364320056445 0  1.301540702984401 0.1216289692748247 0  1.433170657577442 0.3331052752740999 0  1.500459610550388 0.113513924782439 0  0.6494291520606965 1.029586599619295 0  1.010146149868299 0.794897284196169 0  0.3700844198238017 2.235390157870766 0  0.3360891767780704 2.36656279435396 0  1.876856241037701 1.437150669863757 0  1.778674102957329 1.245979347269706 0  0.5472829890977179 0.1005517127039925 0  0.4669074189005698 0.3416784232954367 0  1.472765289289269 1.850899166481903 0  1.555853593327178 1.608452097912802 0  0.6708955559113426 1.646561631116984 0  0.8164699620322933 0.5924479455478063 0  0.3167738989468366 1.758696809749795 0  0.2788007305565096 1.605499483471246 0  0.7821720982350511 0.181524936294752 0  1.376812251214195 2.313340247908297 0  1.785652202614777 0.5962261755537186 0  1.761467296310972 0.4679567244718574 0  2.2265625 1.8359375 0  2.3828125 1.9140625 0  0.5279531607054191 2.071552361614785 0  2.397573269551114 0.234375 0  2.383578172599618 0.3589298466020009 0  0.1024267304488855 2.265625 0  0.1164218274003825 2.141070153397999 0  0.2696857594953064 2.135405441512016 0  2.164961300137334 0.1375322943529536 0  2.137757548369486 0.2724194778647587 0  2.238873711826398 0.3626419179496562 0  0.1001414910226386 0.234375 0  0.2176339285714286 0.3478422619047619 0  0.2503620791333544 0.1061694061057066 0  2.336445461915368 0.1250451055247424 0  0.2154004640409726 2.3918124
[...]
<PointData  Scalars="f_49-2"> 
<DataArray  type="Float64"  Name="f_49-2"  format="ascii">7.7596984851873723e-16  3.5148772360791139e-16  1.1048095287946120e-16  5.2808478053484006e-15  2.6507359900530219e-16  1.1914156496870541e-16  7.9276438616939448e-16  7.0468192582129787e-16  5.6871093849757949e-15  4.5424976327674014e-16  3.2655805818540518e-16  7.8329570651378889e-16  8.0908379710069688e-16  1.0798420924702275e-16  1.8127172518904324e-16  2.3207344215976953e-16  3.5160498290021608e-15  2.0885520095784858e-16  8.0031550007305984e-16  3.5197880001790356e-16  1.1541137221295222e-15  2.0374157280189295e-15  4.3035698768031418e-15  1.5128139356346734e-15  6.2122923644845088e-15  7.6242405195754279e-16  2.5626181134999090e-16  8.1335285128054082e-16  1.5635004034022682e-16  1.5605056779275593e-16  8.1226198750144524e-16  2.7687499435376484e-16  7.9066233425125710e-16  4.9215490266625842e-15  3.0310930845673532e-16  3.4271323855397687e-15  2.0267592442207103e-16  6.1205472788852056e-15  5.2791634054280838e-15  4.6222672944592689e-16  2.8877193340691912e-16  1.6914518144113563e-16  3.4204220905632818e-16  3.1703003944021985e-16  1.6617941785196120e-15  7.7340541806562892e-15  6.8952438137155302e-16  7.6835344788344056e-15  7.9129572017056613e-15  2.2091825466620294e-16  2.9889593258392965e-16  7.7581465590144982e-16  1.3868503409728334e-16  1.1027661548253736e-16  6.1318692864903366e-16  7.7374207362317192e-16  7.8659586711923425e-16  1.0639872276199260e-16  8.0777873565829911e-16  1.0085288356504752e-15  1.2479979838880846e-16  3.1745440187976389e-16  9.4000778764681536e-16  1.0507958640635933e-15  7.6863263911483798e-15  8.0071382237121535e-16  7.8593436993399831e-16  1.6595748800535916e-16  8.0891508188305263e-16  1.9448619224772633e-16  4.3189454676560981e-16  2.4261027494606012e-16  7.9246591396981174e-16  4.0224537632847851e-15  3.3188289908328767e-16  8.9233133129182817e-16  1.3321850001391237e-15  5.8943111947123189e-15  7.7842670902721960e-15  2.4665554595584591e-16  3.1654471729084191e-16  2.8206125449456662e-16  2.4394773514146319e-16  2.3207618305559692e-16  1.8452061431721308e-16  1.2722354729478977e-16  1.3306970004197765e-16  8.1095398911376325e-16  8.1227938594215814e-16  8.0269231124068623e-16  1.6352385685039241e-16  1.3529115335746739e-16  3.1221708323432508e-15  1.3561663156279455e-16  8.0609105889622233e-16  1.1735499907923135e-15  7.4058558672735499e-16  1.4209249403907059e-16  8.8165490949286306e-16  7.9856230705299244e-16  9.0589394341242813e-15  7.4558617706301146e-15  8.1239186097737276e-16  1.8592956768777971e-15  2.2233344190670366e-16  4.3290039502593388e-15  5.3840988682687527e-16  2.3089200452273300e-15  2.4504054570771240e-16  1.8382962113668938e-15  7.8137032398187596e-16  6.6427471296787368e-16  6.3432713489475148e-16  6.8060825571600841e-15  2.5115959876540621e-15  3.1123506423553660e-16  2.1294855750332976e-15  1.7358610383461969e-16  8.8780163466945495e-15  8.7022410268247587e-16  7.2853059009348822e-16  8.0242363577873111e-16  6.2834623896612009e-15  9.1299957912931738e-15  2.6515770438535461e-16  3.4459127605654870e-15  6.9308412360183407e-15  8.1643022075399414e-16  1.3512848270417965e-15  2.1825498779593652e-16  3.0894368180693893e-16  4.4157034272026508e-15  8.7334031724279343e-16  2.3219518826755277e-16  1.8490212613539031e-16  8.4597360796459115e-15  3.0350477636414130e-15  5.4435181855882047e-16  7.4854661830464755e-15  8.4090280337426989e-15  3.0314974509831588e-16  2.6926710215378533e-16  2.8335339589986901e-16  2.7852332013611517e-16  3.1327268080526963e-16  1.6630944782051156e-16  7.1356973871138893e-15  2.9001685808170933e-15  8.0743112582024739e-16  1.4582089480853075e-16  2.5941060357399631e-16  1.1255001179073023e-15  3.1243494120667598e-16  8.3128045542498079e-15  1.0652091029137650e-15  7.6200421062106059e-15  1.7691273255734587e-16  1.7445086004575728e-16  2.0204736614315664e-16  2.0546451438611613e-16  2.2365989864057362e-15  2.8077473904446450e-15  1.2958838275336900e-16  1.2586236694081208e-16  1.0934290592095077e-16  7.7529792780671807e-16  7.9081055664015169e-16  7.0524097889798175e-16  6.5427548020244930e-16  7.3078753613096970e-16  3.2394452617699069e-16  3.2367524963348406e-16  3.8844317121141263e-15  3.4876213436579822e-16  3.5044128129871709e-16  2.3653334963365807e-15  1.6685981258218892e-15  2.9545951889751493e-16  7.7625842430107131e-16  1.6963148453383238e-15  8.2075220862468754e-16  8.2224076171045731e-16  8.2346631746588593e-16  1.3956246385258785e-16  7.8496618813672229e-16  7.7815200140167297e-16  1.2214079875574636e-16  7.8879701544060787e-16  1.1088382028129248e-16  1.1476553760370008e-16  1.6323421710695486e-16  1.0698369316057365e-16  2.3761242697828510e-16  3.3550122596061220e-16  3.8203822423826562e-16  7.4010705546661275e-16  7.9490598829690282e-16  8.1207381083008284e-16  1.4232064235567294e-16  6.0585903470110861e-16  8.5993825534713582e-16  7.7198978051293973e-16  5.7079441979172323e-15  1.3401325876704950e-15  7.8304522187707692e-16  7.9846326492617619e-16  8.1064558110677518e-16  8.1311516124006969e-16  3.3849616770811396e-16  4.9778034228067952e-16  2.1956898407348848e-16  8.3396638087710711e-16  2.1677798343416261e-16  1.5562384886045773e-16  8.9181566076679051e-15  4.2617038799875422e-15  1.6681314088867826e-16  2.8261804621845756e-15  2.4119861069102180e-16  8.2214387476544151e-15  2.1297501915927055e-16  7.9838183664084758e-16  1.8724232634295738e-16  1.5346389844608722e-16  8.0921586753279405e-16  6.7717759152606480e-15  2.5360969914968443e-15  7.4984497309820611e-16  3.0559819774338124e-16  1.9224024454430259e-16  6.3385954529564765e-15  4.0688611122401001e-15  7.6627650120220948e-15  8.8139402154110413e-15  6.9068332985064343e-15  8.0113930433170225e-16  2.9175890641836952e-16  2.5856538313546683e-16  2.2480398878894828e-16  1.7217124564517462e-16  1.4100801020677297e-15  1.5921345527766684e-15  8.0394645987052675e-16  4.5971526825890112e-16  3.9106539768990140e-16  1.6792245057447741e-15  3.3464960480330207e-16  9.1528139240157112e-15  8.8341456927802079e-15  1.8838202992806927e-16  6.5553884473066030e-15  3.8694242256254284e-15  8.9601463096653740e-15  5.1657359141943349e-15  1.3066421202926420e-15  2.5902407928519743e-16  5.1271798190949382e-15  1.1810251699623471e-15  2.9704320672470790e-15  1.7516430227068677e-16  8.1298991205240687e-16  7.2180608231220082e-16  5.8355652180627690e-16  5.6807811125920997e-15  2.5927107509000383e-16  2.4777867619115664e-16  2.3055024604528855e-16  5.0109996365608012e-15  7.6964126639680690e-16  8.0611083837829549e-16  7.9415699672165542e-16  4.3460301373076945e-16  2.7513367042473403e-16  3.3039994583485402e-16  3.5208832617301302e-16  8.0048919031979477e-15  7.0945649457889553e-15  7.8913310845373747e-16  4.4115521456987973e-16  7.9727186027354649e-16  7.7646051488791786e-16  3.1459280841842267e-16  9.3820471893450399e-16  2.0486807793648992e-16  2.0245834864772568e-16  8.0846074342931088e-16  4.9728515908871688e-16  8.1272957220268530e-16  1.1498006245533441e-16  1.2059688292656926e-16  8.0195702758874612e-16  8.1050465688109336e-16  8.1057857645049571e-16  1.4633451653742904e-16  1.5107746882281787e-16  1.4061405211772024e-16  2.7559480469359230e-16  3.0079180170391085e-15  3.4357537875074483e-16  1.2249628770985457e-16  7.8974512461812639e-16  8.1411158949803739e-16  3.4477905145095485e-16  2.0408874249033225e-16  2.9094369691463876e-16  2.7922395832195461e-16  2.6692171142788354e-16  8.1189577568702430e-16  2.7180999739619819e-15  6.2590387347496016e-15  8.1109250060426023e-16  1.7459254064171816e-16  1.2342206330488461e-16  1.2235167838965625e-16  3.4602691712262451e-15  6.4785785239381876e-16  8.0828102433475183e-16  8.0757385656006969e-16  2.3854778776954332e-16  2.3944819103525526e-16  2.3459921774768770e-15  1.8914842861641401e-16  3.2305111376777259e-15  8.2392449913230395e-16  1.0397562865486926e-15  1.5022297334452676e-16  3.0764755630728582e-16  1.5222521399849785e-16  9.8262002916129627e-16  6.7804526245752715e-16  1.2611281810350192e-16  5.0046492951805978e-16  9.6436332465521054e-16  1.0342361266450804e-15  4.8449474089943258e-15  1.7212802507357783e-16  7.9978441320362936e-16  7.5224690806759441e-16  7.2249636787715792e-16  1.3194467679239547e-16  1.5244920932078042e-16  8.6924276037409602e-15  2.1275103005852302e-16  2.2369086304328834e-16  8.7434943875429377e-15  1.9202599711930122e-16  1.4877320536964751e-16  6.3427355695594995e-15  1.1527540227318856e-15  7.9495070937468702e-16  6.7801622009175475e-15  1.0380415185907141e-15  5.9767734924629780e-15  3.4075656049059049e-15  2.1861674797754071e-16  7.8502271351081233e-16  6.8637436846498963e-16  1.3015673730379442e-16  1.2582942319686148e-16  8.1871195385925298e-16  7.8620232257109028e-16  5.4502683300401014e-15  4.9571162294437740e-16  1.8234400404890730e-16  2.5435365518047191e-16  7.8681108119267989e-15  2.3292715437375487e-16  8.1059978881787055e-15  8.1442103977993329e-16  8.1956100639959403e-16  4.8524855158281250e-15  7.5480634446044616e-16  3.2479863979006905e-16  6.6018547068457276e-15  9.1368739789448628e-15  5.9155518396710743e-15  6.8825186708243369e-16  9.5382068647782763e-16  6.8099905992876262e-15  8.7682578094923215e-16  4.6383489913298013e-15  2.8175539543380028e-15  1.8045630582824600e-16  3.2208668412793083e-15  1.5983379079528661e-15  5.2011037531005320e-15  8.9672228721813239e-16  8.1885733523645528e-16  1.4085445247814138e-16  1.4676425220272998e-15  2.6853186536993110e-16  3.2529251159686017e-16  8.0986446251532667e-16  5.9226118595822063e-16  6.1612854413317096e-15  3.1215241561876493e-15  5.1161185100664500e-15  2.1649174999681367e-16  2.3842368259144783e-16  7.2092718988180483e-15  3.9774649322199947e-16  6.3003995328818681e-16  1.8724195393875916e-16  1.6586506529670456e-16  9.2774468815571419e-15  1.6849762371170187e-16  1.4788475714860061e-15  7.7480653637171926e-16  7.0398500332229727e-15  1.1745911368203182e-16  2.7785854161871379e-16  2.7986183355930021e-16  3.6690769380417769e-16  1.4390691637661222e-16  7.9040104194709567e-16  7.7018440293670030e-16  4.2105108656798807e-16  6.9733783823137417e-15  1.6206799129552291e-15  7.7918120111528342e-16  8.0778722086128733e-15  4.8121301888861871e-15  5.2035798298088583e-15  2.7132772294124058e-15  7.5633419409212339e-16  7.0057229268691847e-16  8.0494871367551509e-16  4.0771100148339129e-15  8.6288994509534437e-15  7.6463067416783805e-15  3.1876995126659306e-16  8.8916838228480879e-15  7.9484557360667472e-16  8.0462138178518650e-16  1.6234805060342423e-16  2.6768615101495773e-16  8.1234730619492594e-16  2.4524943008540775e-16  4.1419609649164657e-15  3.1685320612242480e-16  1.3491436740875508e-16  7.9612790711394889e-16  2.9282308234645317e-15  1.9156228153159976e-16  7.3378767232252237e-15  8.3672269242907997e-15  7.2811990466614825e-15  2.5303142356270557e-16  2.9839927983811130e-16  1.3184765554884923e-16  4.8358390782254435e-15  6.6180220658309003e-16  1.3535353464303270e-15  1.1042674243233896e-15  1.4386588954578724e-16  7.8655679597243366e-16  3.7259158079276514e-16  4.3873857261767072e-15  9.1202631272484672e-15  5.4421729638768038e-16  8.7285983428301042e-15  2.3257591901493782e-16  7.1235613676184994e-16  1.5029265443810238e-16  1.5851371744779065e-16  7.3531559014282484e-16  8.0777773322618304e-16  1.0807921815800517e-15  2.3159147149017434e-16  9.0859151606850496e-16  1.7269765863954180e-16  3.1350889724545760e-16  3.1293947456916506e-16  2.7902594036669328e-16  2.5958261748730801e-16  2.5828214948794288e-16  5.2667932055934813e-15  2.8326160376120180e-15  8.7730245630074611e-15  3.3515012597117313e-16  7.7752762382143734e-16  8.2018390248302783e-15  7.6719642112833001e-15  8.0399745182632730e-16  9.4256465247625117e-16  1.2502891028187513e-15  3.6607016646359969e-16  2.8678872121764714e-16  3.0526527970632041e-15  8.1195051520544543e-16  8.0325171271613751e-16  2.4425023461029195e-16  5.1793000057133904e-16  2.4923401830977082e-16  1.1047406894730042e-16  1.4939044789097161e-16  2.0250149307959288e-16  8.0038893057616942e-15  8.0930432530433945e-16  5.3510112754768001e-15  1.7336474159705147e-16  2.7880269498713493e-16  3.3262242451909941e-15  3.3783706935408086e-16  1.0669348293446982e-16  1.1796846998452248e-16  7.9736494080378625e-16  2.9895552220939459e-16  8.0456015590659590e-16  8.0138016922669581e-16  2.0652831227745014e-16  7.3644621099044021e-15  2.9536148992011675e-16  1.4535911654173847e-15  2.9745843647880510e-16  9.0721571934769127e-16  1.8644690957709533e-16  8.0284505286932794e-16  8.1174654533272778e-16  7.8904737490517976e-16  7.9124108370512566e-16  2.8428905296438053e-16  3.1047825020861598e-16  2.7941939677824144e-15  1.3393422721866096e-16  8.1059382839395742e-16  8.0930006666876143e-16  2.1987755698279590e-16  2.0527583731536645e-16  1.8013000072267061e-15  8.1236861624707518e-16  1.1307177470151126e-15  1.5757132865200910e-16  2.6976119542895111e-16  1.0951159549329573e-16  1.6853840725595850e-16  1.6679370122283084e-16  1.8441324926198118e-16  2.5993211378473333e-16  6.7952835007677887e-16  1.7589551582580077e-16  1.1054774724238816e-16  8.2988268891323790e-16  1.5285644097963654e-16  6.6249559115212970e-16  6.7667655551776877e-16  2.3128726583385207e-16  3.6717837254860077e-15  2.4937941762010181e-15  3.8620545162069205e-16  1.9709547736040571e-15  3.9973705719346455e-15  2.8750674538888610e-16  2.9386681934089248e-16  1.2838003744696685e-16  8.0852539294995017e-16  8.7413882263086399e-16  3.0298237445715913e-16  2.0396889305323364e-15  8.0688763739308855e-16  1.3420919557298040e-16  5.6149798463001223e-16  4.0435923803479163e-15  1.0143415769528910e-15  1.3813473793719091e-15  1.1537412830931652e-16  2.3809166110653072e-15  5.8415128263227176e-16  1.1833812109903151e-16  7.9694501248222506e-16  2.3268885484126654e-16  2.1598560650792960e-16  2.0814906262165100e-15  3.9319082371250421e-15  7.6966818796446094e-15  5.6836094550864002e-15  1.0570369849988178e-15  5.9000533784178212e-16  7.6741892377163219e-16  6.5193910815126386e-15  1.4973762146854359e-16  1.1950646611763135e-16  8.0897239981242443e-16  9.1086607340417492e-15  3.2832425893249587e-16  2.3389002755968121e-16  3.5109448744907023e-16  6.9178219820292758e-15  6.2009762158499766e-16  8.9903827260354847e-16  8.4325854870692587e-15  7.1486345600289870e-16  1.0397256295018356e-15  2.8814610238355685e-16  1.5621526078144519e-16  1.9436397022549029e-16  3.3073890927818761e-16  7.3133327479946317e-16  3.1823077799890478e-16  3.2663730188779558e-16  3.2092315216070034e-16  4.8183485806494973e-16  3.2465460368383899e-16  1.2417835108211635e-16  1.1299750279111272e-16  9.0925338086374940e-15  5.0732426794778773e-15  6.4015794226494194e-16  7.4778530714458279e-16  2.1117446700832388e-15  6.4273613599553577e-15  1.4344844615918974e-16  2.9397628621445159e-16  1.6345335774248499e-15  1.3729990931513648e-16  2.5859645373742835e-15  3.0478996252408942e-15  8.0471154335264872e-15  5.3807787466702994e-16  2.1764041732750898e-15  2.4980269547751328e-16  8.7739252795144684e-16  8.1010736118053374e-16  3.4990998947092411e-16  3.5223174861550098e-16  4.1907737490358118e-15  2.5329411227841377e-16  5.1156350711962568e-15  3.4071236463894008e-16  8.1021800427456079e-16  1.1365979563551906e-16  1.8419091177623654e-15  4.5292754183824764e-15  2.2201208492518286e-16  4.4903060661105297e-16  1.0315653716423727e-15  2.8924467679995373e-16  4.7404536242746788e-15  3.4210492852611159e-16  1.3616090940152664e-16  1.6274360903889960e-16  2.9548549614861128e-16  1.6289163223109637e-16  5.9771516936286539e-15  7.8951912311319757e-16  8.1288361382517790e-16  8.1357238722934724e-16  8.5869465609380742e-16  7.7758260519173989e-15  2.0208947860670050e-16  5.3319037682315567e-15  8.8363817412007819e-15  6.5186414818172471e-15  3.2226716510686652e-16  1.4039295339408752e-16  1.2913873827079182e-16  8.1096090410799100e-16  7.0390078392174776e-16  8.5361673786338123e-16  1.3475329793070769e-16  2.7230535259019350e-16  7.7508074436771125e-15  7.8553563251240054e-16  7.2348505920191592e-15  7.8480870512861299e-16  7.7630053499435118e-16  7.9831316606647237e-16  7.8524969310540977e-16  7.8479831775548203e-16  1.3145807968621824e-16  1.8917335629330890e-16  2.1078439784983643e-16  1.1661644809792776e-16  1.2121344397545398e-16  1.2317196055285826e-16  6.4198744514672327e-16  6.8658976648711100e-16  7.2291654200720269e-16  7.9013345993599059e-16  4.8799131963860973e-16  3.0555945035004739e-16  1.7250512457202748e-16  8.1129335665607306e-16  7.7462422961129025e-16  3.4630811519846596e-16  7.9899334384643685e-16  1.0728260838908400e-16  3.3197362127156961e-16  2.3108939136760258e-16  3.4044471286598620e-16  3.3002918297803951e-16  2.6989778148425145e-15  2.4918592609804673e-15  4.5092773274032271e-15  6.2491414641737733e-15  7.6122825930817723e-16  8.6840324888734766e-16  4.2039675649103347e-16  1.6651667761658592e-16  9.8722186855761433e-16  1.0648193834244241e-16  1.9085645343780848e-16  8.9189623907813660e-16  2.2087617463136614e-15  7.9283897703470427e-16  2.4567130301906103e-16  8.0501637715192072e-16  1.3346607215794379e-15  7.1000720382293968e-15  3.0029498667637853e-15  4.1440568212301072e-16  3.3640057832232749e-16  7.3348052246707743e-15  4.3122082573167789e-16  8.1240387500694399e-16  3.6037728091556176e-15  2.8896889057082462e-16  8.1564560076255758e-16  7.5323473112172141e-16  7.7214777194927356e-16  7.8045729425060330e-16  7.2460615006024270e-16  4.9792193000649633e-16  1.1601513058602267e-15  1.4841066809114577e-16  8.7191346595320707e-15  8.4472653328745491e-16  1.5976112140392912e-16  7.5519649756484520e-15  1.3166554409761106e-16  7.6500539544554629e-16  8.4118718475421272e-16  7.8288746642799401e-15  6.9522945248164287e-16  7.6291355962140916e-15  8.1474928136021167e-16  2.4806593222672088e-16  6.9444881965346489e-15  8.7649414560615146e-15  1.7916926890024580e-16  1.3824918339471512e-16  4.5647940437929425e-15  1.5686959449443973e-16  1.4429494681775618e-16  1.5876426444811500e-15  2.3175483413014658e-16  5.1315674835287947e-16  3.9944509910478966e-16  5.0878588240692978e-16  2.1658013586551635e-16  7.8771267264773407e-16  7.9551092944142624e-16  4.1946264184702772e-15  2.6264044854488905e-16  2.0932833802689829e-16  2.2041663919188564e-16  1.8739626001086356e-16  8.1212516233988572e-16  7.4026360900778718e-16  1.0879433183173367e-15  7.9857602051759627e-16  2.6945145531678086e-16  8.0636251055096767e-16  8.0890766704442887e-16  1.0033356665500429e-15  2.8953530042564028e-16  2.0089845961071950e-16  1.9025436340630069e-16  8.1230128414338479e-16  1.0118389772744813e-15  7.7427538151221004e-16  7.7980505757855620e-16  7.9266998074438919e-16  1.8236285566029731e-15  1.4716017626428405e-16  8.1492532325249024e-16  8.2841575599596365e-16  8.0883408019922586e-16  8.0962721496223142e-16  8.0555386644556585e-16  2.1972919686912296e-15  3.1610042324994883e-15  2.4237119506455033e-16  1.8466247323290666e-16  1.2105119716102656e-16  1.6201090925248088e-16  1.6330333180355149e-15  9.0803213756356473e-16  6.9657363822126207e-16  1.1940481240132743e-15  1.6633481079142633e-16  2.1005313087056788e-15  2.5602369378203450e-16  3.9266414101910700e-15  4.0502720829295910e-15  1.8010006136731180e-16  7.1314995489980663e-15  8.6227479169842300e-15  6.4750729673080790e-16  1.5799841571266714e-16  7.8532531671302343e-16  7.5002658974244560e-16  9.2417373352114169e-15  2.4362477689266961e-15  7.1938168490933410e-16  8.0024697758700884e-15  9.0086266324879778e-15  8.0447009696606395e-16  1.2850778408670070e-16  2.7642789860709545e-16  5.3356587427613428e-15  7.5572079942243621e-16  7.3751022606108752e-16  8.0432839145941298e-16  7.9157890979855346e-16  1.7503924023805795e-16  7.8521739316144788e-16  1.7724731108322175e-16  1.2794027214081735e-16  8.1599690438911993e-15  8.1191323427113041e-16  2.2288365085065639e-16  6.6845007766736973e-15  1.5658808681833180e-16  5.0789117329465659e-15  8.0160718116844809e-16  8.0678960743578269e-16  8.1050509793387047e-16  8.0026445718998318e-16  4.0672701660117