<?xml version="1.0"?>
<VTKFile type="UnstructuredGrid"  version="0.1"  >
<UnstructuredGrid>
<Piece  NumberOfPoints="6486" NumberOfCells="12696">
<Points>
<DataArray  type="Float64"  NumberOfComponents="3"  format="ascii">0 2.5 0  0 0 0  2.5 0 0  2.5 2.5 0  1.25 0 0  2.5 1.25 0  1.25 2.5 0  0 1.25 0  1.25 1.25 0  0 0.625 0  0.625 0 0  0.625 2.5 0  0 1.875 0  2.5 0.625 0  1.875 0 0  2.5 1.875 0  1.875 2.5 0  1.770833333333333 0.7291666666666666 0  0.7291666666666666 1.770833333333333 0  0.9375 0.625 0  1.875 1.5625 0  0.642361111111111 1.163194444444444 0  1.341594827586207 1.883979885057471 0  0.46875 0.46875 0  2.03125 2.03125 0  0.3626104797979798 1.513178661616162 0  1.381740196078431 0.4564950980392157 0  0.9375 2.172619047619047 0  2.172619047619047 0.9375 0  2.096354166666667 0.4036458333333332 0  0.4036458333333333 2.096354166666667 0  1.684027777777778 1.163194444444444 0  0.3418803418803419 0.8693910256410255 0  1.642742622813391 2.162164207604464 0  1.275619849389031 0.8465650753054845 0  0.9136284722222221 1.434461805555556 0  1.732437511238546 0.3406962303960658 0  0.9714402568595876 1.029779313093998 0  1.52281746031746 1.485615079365079 0  2.1875 1.71875 0  1.06819722569879 0.2997236128493951 0  2.136114211309524 1.303478422619048 0  0.3125 0 0  0 0.3125 0  2.5 2.1875 0  2.1875 2.5 0  0.3200021620376328 1.192323085056694 0  0.6738456129277992 0.8304377375553881 0  1.757891808928991 1.861952730357003 0  1.5625 0 0  0.9375 0 0  0.3125 2.5 0  2.1875 0 0  2.5 0.9375 0  0 0.9375 0  0 1.5625 0  0.9375 2.5 0  2.5 0.3125 0  0 2.1875 0  1.5625 2.5 0  2.5 1.5625 0  0.7448220909826522 0.3003573636608841 0  1.027298850574712 1.871151477832512 0  1.331260495098891 2.197262878816185 0  1.207917681892289 1.582765010956622 0  0.4339993447432606 1.801186844743261 0  0.6337298768939392 1.443093039772727 0  2.049851190476191 0.6826636904761904 0  0.6584821428571428 2.219122023809524 0  1.89575676467455 0.9798457973793544 0  1.437570562095628 1.059380588255917 0  1.502090052505845 0.6987070896496241 0  0.2040860661083546 1.705323965099331 0  0.2083333333333333 0.46875 0  0.5070952039991439 0.2211150679997147 0  0.6916302856529919 0.5813591430410241 0  2.265625 1.953125 0  2.2265625 2.2265625 0  1.886424081252096 2.243391360417365 0  1.40625 0.202164758520858 0  0.2269345238095238 0.2269345238095238 0  1.152730869673694 0.5225850378741401 0  1.885631899587912 1.312095130148776 0  1.614808884009367 0.9049784971014416 0  1.890095442220658 0.5126535558463003 0  2.323168682795699 0.46875 0  2.268811725689575 0.2304742875213018 0  0.6002389442105756 1.967426444210576 0  0.1768313172043011 2.03125 0  0.2311882743104251 2.269525712478698 0  2.03125 0.176831317204301 0  2.280262553344767 0.6954945504579233 0  1.979219539285994 1.809922269642997 0  2.336309523809524 1.09375 0  1.09375 2.336309523809524 0  0.9314042474388009 1.662973812215543 0  0.1634067999087722 1.40625 0  2.337090640094896 1.40625 0  1.141616997467638 2.069311773587991 0  0.46875 2.338939559681489 0  1.542440307908715 1.734944797244472 0  1.556713687786879 1.956977865354753 0  0.8264238995344066 1.975424467820646 0  1.466326331454725 1.275271369760862 0  1.655675324257095 0.5444159974393489 0  0.3385416666666666 0.6479255698005697 0  0 0.78125 0  0.5236073939200119 0.984090461540625 0  2.091665741047893 1.519793517904215 0  1.71875 2.5 0  0.5356538886262603 1.623137930505009 0  0 1.09375 0  0.1932884281517095 1.015625 0  0.8569313582417669 1.2198915584249 0  0.8876981284879677 0.8329884081524883 0  1.115618488474214 0.7219586973356271 0  1.186950366204949 1.043465130075318 0  2.057459118787237 1.110823087309335 0  1.830651283878689 2.049810069572418 0  1.689107969301489 1.367247437031697 0  0.4921048768039656 1.298643370653124 0  0.8213975694444444 2.336309523809524 0  2.03125 2.5 0  1.049729400480002 1.283723261332814 0  1.308101375801673 0.6489479469700392 0  2.5 2.34375 0  0.4968777175037714 0.7562964879736076 0  1.40625 2.5 0  1.501347663534097 2.307027627307738 0  1.602813712048603 0.1926218191360736 0  0.8393082906308107 0.463778306132633 0  1.682663349152719 1.598471865581041 0  0.7774174680851571 1.560004941327907 0  1.554204170364662 0.3898593897892066 0  1.842184459051087 0.186443880058197 0  1.358107417651776 1.696381759610015 0  1.18859291992392 1.77598670078022 0  0.1875331222687418 0.7609599743339348 0  1.339536743965101 1.422080365801479 0  0.7788179348750389 0.9955343414928611 0  0.9062978492805438 0.1919636509126373 0  1.256007360640958 0.3160320559396114 0  1.09375 0 0  1.174986727221844 0.1594990293443933 0  2.34375 1.796875 0  2.318026474511116 1.589177949022232 0  2.34375 2.5 0  1.672742954892153 2.332882724550692 0  0.2683637361947215 1.874801596909639 0  2.174770749820102 0.5581009131310781 0  1.443279522965991 0.8870068372898454 0  0.3385416666666667 0.3571428571428572 0  0.78125 0 0  2.060421048269335 2.314363248763811 0  1.088078737088509 0.8967352118723447 0  1.087825368444708 1.454931510884769 0  2.018308232129541 0.8548495425854904 0  1.943987311736842 0.3246298523011434 0  1.71875 0 0  1.85337849796276 1.144833312386208 0  2.3486328125 2.1044921875 0  1.407588788651747 2.042968789119587 0  2.336309523809524 0.865366648092144 0  2.34375 0 0  2.5 0.15625 0  0.15625 2.5 0  0 2.34375 0  0.1638044648294291 1.242263417405867 0  0.356216654757926 1.032569427322806 0  0.3188217956111817 1.355736727000647 0  0.5924956460852111 0.36112522004736 0  0.6594216488965849 0.1603472116132387 0  1.841804599497131 1.72214349266521 0  0.15625 0 0  0 0.15625 0  2.115898634821499 1.894570904464496 0  0.7821877980253907 0.7129993435924866 0  1.003820447087786 0.4516053462784233 0  0.477562948779147 1.138333049293613 0  0.719493678605015 1.305655360135975 0  0.9772457618587566 2.020350128938537 0  0.8764738248887107 1.826219722709673 0  1.254787875123819 2.339010653832026 0  2.343597354852534 1.249982759769001 0  0.78125 2.5 0  0.46875 2.5 0  2.5 1.40625 0  1.09375 2.5 0  2.5 0.78125 0  2.5 1.09375 0  2.03125 0 0  2.5 0.46875 0  1.40625 0 0  0.46875 0 0  0 0.46875 0  0 1.40625 0  0 1.71875 0  0 2.03125 0  2.5 1.71875 0  2.5 2.03125 0  2.005424054645407 1.653223486966518 0  0.1538730573856537 1.559850281736677 0  2.33984375 2.33984375 0  1.166539506212474 1.922878979538754 0  0.3914885633949916 1.65887232812171 0  0.5795503163042564 1.766243562569382 0  0.399533125920212 1.946786875081388 0  0.7866324979014098 2.127719094551316 0  0.3654683023546834 0.1495701132219454 0  0.1527388747131078 0.6116379440619215 0  2.013737577140188 1.391056634712135 0  1.17635437372994 2.213329084238133 0  1.737118141866284 1.010577140843115 0  2.200707118087222 1.164723314085963 0  1.697018908736685 1.993548551451517 0  0.5387621649009668 0.6070503962352419 0  2.032805785855952 0.5330427622570983 0  1.082699501358059 1.667818725183932 0  1.503819781540653 0.5468420196858188 0  2.015409142866072 2.175941657590429 0  1.752057611265444 0.869642097111018 0  0.612251684107783 2.356045720700959 0  1.902817102342857 0.6607642211999982 0  2.159616561739693 0.7867739969338844 0  0.5120038350106624 2.197302352398502 0  1.888200216011548 1.919501662489862 0  1.495909909726654 2.16028358757309 0  0.489139876703609 1.443203008943564 0  0.8819175670410521 0.3301172743913011 0  1.882591144370812 0.8155965192707721 0  1.133979796994841 1.172526771862882 0  2.206217447916667 2.084147135416667 0  2.20361328125 2.36279296875 0  1.395746985657004 1.556054166359645 0  1.704383111516207 1.734750450338683 0  0.9575737847222222 2.36274223823052 0  1.035150984253136 0.1302833343179028 0  1.383966125325753 0.7651479963479179 0  1.64003252158672 0.6824316405528895 0  2.22550785055421 1.487078576356817 0  1.760964431499756 1.48495222505201 0  1.276460980673788 2.004207003584658 0  0.1341477688427096 1.828777507920502 0  1.542261434180652 1.155296658359034 0  1.334627911613854 0.9696897472490321 0  1.30794231473696 1.119420615785191 0  0.7028260459857245 0.4438906910721139 0  1.625757433094055 1.84268057552138 0  0.9818707849053143 1.165603626132254 0  2.0086489901463 1.243134585689553 0  1.934584460420609 2.374094051915812 0  1.798434376789567 2.38671361912528 0  1.206314791201715 1.382064292497919 0  0.6333752893366955 0.7023738550008095 0  0.7796219811205605 1.42573253164258 0  1.564399711917382 1.026040828857629 0  0.3385416666666666 0.4889012896825397 0  0.1041666666666667 0.390625 0  0.989112246382566 1.543537365516289 0  2.025724425454636 0.9846960595520872 0  0.6602885475034063 2.086117390485779 0  1.607130551925032 1.267198646640915 0  0.1317864544877056 0.8896173683400176 0  1.755387840017567 2.230364320056445 0  1.301540702984401 0.1216289692748247 0  1.433170657577442 0.3331052752740999 0  1.500459610550388 0.113513924782439 0  0.6494291520606965 1.029586599619295 0  1.010146149868299 0.794897284196169 0  0.3700844198238017 2.235390157870766 0  0.3360891767780704 2.36656279435396 0  1.876856241037701 1.437150669863757 0  1.778674102957329 1.245979347269706 0  0.5472829890977179 0.1005517127039925 0  0.4669074189005698 0.3416784232954367 0  1.472765289289269 1.850899166481903 0  1.555853593327178 1.608452097912802 0  0.6708955559113426 1.646561631116984 0  0.8164699620322933 0.5924479455478063 0  0.3167738989468366 1.758696809749795 0  0.2788007305565096 1.605499483471246 0  0.7821720982350511 0.181524936294752 0  1.376812251214195 2.313340247908297 0  1.785652202614777 0.5962261755537186 0  1.761467296310972 0.4679567244718574 0  2.2265625 1.8359375 0  2.3828125 1.9140625 0  0.5279531607054191 2.071552361614785 0  2.397573269551114 0.234375 0  2.383578172599618 0.3589298466020009 0  0.1024267304488855 2.265625 0  0.1164218274003825 2.141070153397999 0  0.2696857594953064 2.135405441512016 0  2.164961300137334 0.1375322943529536 0  2.137757548369486 0.2724194778647587 0  2.238873711826398 0.3626419179496562 0  0.1001414910226386 0.234375 0  0.2176339285714286 0.3478422619047619 0  0.2503620791333544 0.1061694061057066 0  2.336445461915368 0.1250451055247424 0  0.2154004640409726 2.3918124
[...]
<PointData  Scalars="f_16-2"> 
<DataArray  type="Float64"  Name="f_16-2"  format="ascii">-2.3757859046165416e-64  1.0798493160372841e-24  -2.6028045662695979e-71  -2.5328997876590890e-74  -1.5882901769430687e-45  -2.1034514873707753e-65  -1.3044984972807253e-62  -2.7215926451003210e-38  -2.4961144956216024e-42  -4.8736053243522507e-25  6.5683651719783361e-33  -1.9385766382246476e-62  -1.6920244654665775e-51  3.8822646118533853e-69  -9.9303348695188456e-59  -1.7281604403451706e-68  -2.5259503662139849e-67  -4.5117150403853773e-51  -1.4106143776824367e-46  -3.2428796192511799e-32  -3.6431377713346164e-55  -1.1622528154524334e-34  -2.8644818024662139e-52  -5.0972496791027129e-23  -1.4522790682658237e-62  -1.4481068557712076e-41  1.0277585558121059e-43  -2.9913214731230905e-55  -7.7747204890548041e-59  8.8294010315548598e-62  -2.0651706059480317e-55  -5.3303765124585239e-49  -8.5333307871912836e-28  -1.0051003834265798e-59  -1.7330605240040713e-39  -3.0102262871466006e-41  1.5271472583057702e-53  -7.3753032431931058e-36  -8.2751647957752873e-49  -7.8988696115745983e-62  2.5609913091175611e-38  -2.9811587002605158e-58  -3.7098218936892002e-27  1.5796857998363049e-19  -4.7312583057853278e-71  -6.7466875347347285e-71  -1.7738933212571690e-34  -1.4150956017627775e-29  -5.8750127380813194e-57  -3.0113974885921926e-52  -2.1854520600427489e-39  -2.7201407134347748e-65  -1.8177697201085205e-65  -1.2033583201819809e-66  -9.1191506323412848e-32  -1.5926570847795666e-44  -2.9072698416341187e-62  -5.7311889858418657e-72  -4.5575099302345570e-58  -1.3388363791892506e-64  -2.1246690867105788e-66  4.6375634044846200e-30  -9.6807942617303124e-50  -9.0688861423925787e-58  -2.0957434509771346e-46  -1.2348940677898020e-47  -1.0487482612873859e-39  1.9194108138540327e-58  -1.6010606760693646e-56  -1.0086154294849256e-52  -1.7359957890690689e-43  -1.7094568289813516e-44  -1.1837287529095921e-47  -7.5105848248807083e-20  -5.1770350248401810e-25  -2.7426995805782983e-27  -3.1651235179116560e-65  -9.8461241707377302e-68  -8.8691136270431659e-64  -1.2567828846112463e-47  -4.9662062024673582e-19  -2.5143573759622627e-38  -1.3213140220715712e-53  -9.0190043818791163e-47  -3.1290367509044528e-57  1.5531663237914097e-68  -2.5463411831222421e-67  -8.2275605996018509e-51  -6.8319097038698515e-55  3.4007361576890593e-61  -3.1796545767965200e-62  1.4353331579224937e-63  -2.6326540035111335e-59  -3.5478033268281818e-62  -5.2355264154350730e-59  -1.8519952257388137e-45  -1.3617704609880468e-41  -1.3307198639726942e-62  -3.3762262641581087e-54  -1.1563716981266019e-59  -2.1345997647923605e-52  -8.2506631760591908e-56  -3.5504044302726887e-51  -8.6097387156605920e-46  1.1030855824952268e-49  -1.2996989922098285e-23  -3.1221908915630046e-28  -9.3225315080308354e-31  -8.5847686425780702e-59  -9.4387051781754929e-66  -2.0882451264978236e-43  -2.3909249262010954e-35  -2.5975493313747131e-31  -2.4224607730008257e-37  -1.3812245528001428e-32  -6.2439204916348854e-36  -2.4385996803140786e-39  -2.3889171273062631e-56  -2.4156836002406634e-60  -1.8471951462746441e-50  -1.9639576303579506e-36  -6.3631801624748145e-59  -4.4317058382086911e-69  -1.9208240693169300e-40  -1.6807616607131282e-40  -1.0405240594435281e-72  -1.4241162284104221e-26  -1.6238427052611185e-63  -6.5540250616066694e-61  -2.8784133900461592e-53  -1.3356157222561745e-30  -1.6158164087766731e-52  -9.5149898794651313e-43  1.2723662100872389e-48  -2.8891525352655068e-58  -1.0008676013105748e-49  -3.3068862066977996e-49  -9.1530281766736116e-26  -1.3546113382895321e-45  -5.4219884037297600e-33  1.4139671012764688e-35  3.2807598170699040e-42  -2.6671028472510673e-42  2.8442359325332117e-43  -3.8115923968337408e-65  -2.2847772343462885e-63  -1.1304583296966658e-72  -9.5507728984724059e-63  -7.1659903883844503e-51  1.1043495805301698e-62  -4.3798540950827866e-43  -3.6624134274716517e-20  -8.6852690782239986e-36  -6.3290301323468406e-67  -2.0521833712637913e-36  -3.1104286255305614e-43  -8.1826887994424129e-56  2.9403576241663125e-59  -1.9701374614421744e-55  -2.5674951565927084e-52  -4.6076467979175149e-68  -1.0277005035602426e-55  -3.2573127987203862e-63  -2.3171111627091980e-68  -9.6004265324967351e-72  -1.3370512948453947e-64  -1.6937757261913172e-61  -1.8129328190401995e-37  -3.6717831963529646e-31  -4.1479662816348116e-38  -9.2528454122140267e-26  1.8238171674550504e-30  -2.4568609103031955e-56  -4.2090022763147352e-25  -3.0243975634663143e-22  -1.7652239769762184e-62  -6.3486414215724245e-30  -1.6734112874389288e-35  -3.0865285689939085e-33  -1.0310348977678039e-37  -2.8374290920921135e-52  -3.4382877478600961e-48  -8.9286555087983502e-60  -2.1104496116196295e-62  -1.9388026743394883e-62  -2.5176310367488610e-63  -1.2435677793581959e-65  -3.3627124067784474e-62  6.2046501535181433e-68  -1.1655122680554908e-65  -5.5557406887898521e-62  2.9448988565488402e-71  -3.3319997692344208e-49  1.8705764113297187e-29  -5.7630144322848549e-22  -2.8537364780679864e-41  -5.4164827679968467e-48  -1.2987083365875855e-54  -2.4254069452995063e-67  -1.2599726920706890e-69  -3.2222667974547084e-58  -9.8856775404665294e-45  -1.6125496563425491e-70  -9.8004108250640713e-52  -1.5251329328200309e-44  -1.7699389050261860e-46  -2.1210708763677859e-51  -2.7211507536747779e-54  -2.3775443159010868e-24  -8.0744915814504926e-23  -1.8675818502196763e-56  -6.4507744296703330e-57  -1.9189069584276479e-49  -2.4563384688253249e-59  -7.7265593920673726e-58  -3.2386939887376079e-25  3.4117871502088100e-59  -1.7090312691980795e-46  1.5881334229588213e-46  -2.3294642982450722e-64  -1.6688192482219776e-49  -1.2820015154144708e-59  5.5004129541227380e-55  1.8347639576614149e-60  -2.2573482420883782e-56  -2.0079935559283570e-59  -2.3565537770777941e-58  -2.1198297160228101e-39  3.2913619936107493e-33  -5.7303689128735380e-53  -8.6835006063129349e-40  -8.6276812069441066e-66  -1.8023604057208913e-69  -3.8271286619742045e-48  -1.1501460227125180e-54  -2.1749843026305876e-59  -8.0406726145375478e-40  -9.4666114449044805e-42  -2.8971654060674236e-48  -6.0142421358909766e-61  -1.3557936320133705e-52  -8.0041742121503411e-54  -3.0091250991598515e-50  -3.2005460467604879e-46  -2.9175548990609725e-41  -4.5529765739316314e-42  -1.3519572506882828e-27  -7.1704819163102574e-55  -7.9664147207122536e-38  -1.6321504041232959e-55  -2.9496523430806920e-66  -5.7544291100105613e-65  -2.0605963772739497e-43  -1.8066499434536196e-27  -3.2730897123266053e-40  -8.0443748787565267e-46  -3.0943404833497522e-21  -1.2949334229033801e-18  -1.0732347300738662e-43  -1.7278511176908516e-55  -1.3184486999417043e-53  -3.7675368942137505e-48  -1.9608706942351161e-29  -5.8139244566244760e-62  -7.5160870236293824e-47  3.1252476334883201e-46  -7.8480689885711021e-51  -2.0164138210449785e-32  -1.5994633517143518e-34  -2.4441478846709673e-58  -1.5597651349614687e-62  -3.0682098391055910e-54  -2.7375614784947600e-51  9.3718074638163949e-29  -9.7970341010377531e-23  -2.7238582804160561e-53  -5.3906073157719263e-51  -4.9626101092421364e-44  -9.5455407471762716e-30  -1.0622726375259147e-47  -2.5206754865503048e-44  1.4827469223850600e-32  -2.8648789249728148e-60  1.4397911628881960e-52  3.8984438877770899e-53  -2.2784692204053242e-63  -8.3825157234517969e-67  -2.3245874999100355e-53  -4.4666392812716343e-70  -3.0531203164976811e-70  -1.2103565200595207e-59  -4.1824778955936187e-57  -1.1653754345407424e-56  -6.0158423905094980e-65  -1.0332027000952004e-64  -1.2968113623037231e-66  -8.4727088986991940e-18  -2.0937917965824862e-18  1.4185339406146899e-22  -1.2965674365250954e-68  -1.2717769655056291e-62  -1.7712151097328068e-56  7.4009898941685099e-23  -1.0397960568736254e-55  -4.0933115422625306e-35  7.1610175221366848e-39  -1.3564119147177808e-41  -2.4031407945683151e-53  -1.3787423356001049e-50  -5.8875093778421280e-35  -6.5855029157275340e-53  -4.3894214780738596e-60  1.0862191810164686e-66  1.4630585305907652e-65  -6.9398966841263607e-70  -3.6117362321526916e-25  -2.4275335516356251e-49  -1.9817009262444275e-49  -3.9690959823600571e-45  -7.1886412873355322e-61  -9.1772670519204405e-48  1.4206728075196130e-55  -2.3436518288146343e-28  -4.2259797854504192e-45  -1.1660172644661966e-47  3.8711455314067909e-61  1.5052180131623043e-36  -1.1596660304465775e-59  -5.7617234313879209e-56  -8.3181059849605693e-34  -1.0723946923082187e-63  -4.1037986088768243e-26  -1.8656055598922693e-36  -3.7341912803638710e-60  -7.0349573012842794e-61  1.7102869272844620e-58  -7.4618915108348016e-61  -6.5553767474402714e-41  -7.5693540520850329e-40  -1.4032425812894569e-64  -1.3925759509650357e-60  -5.1970388073172955e-35  -8.7134910482463120e-54  -1.2328769835952291e-47  -2.1691618098156004e-62  -4.2100733793548386e-57  -1.8708215996206278e-65  -7.1313816812177082e-58  -3.6159702346737144e-44  -1.7979140072828012e-60  -1.9162015976484463e-39  -1.7443214069116745e-25  -3.2409471264817758e-23  -7.3622798644593019e-22  8.9746558278898552e-51  -2.9533888351937258e-46  -9.1202112609751019e-37  -5.0718357544966684e-64  -9.3466444408442898e-64  -9.8580292763422240e-62  -9.1603456078241451e-63  -1.4998717824348091e-72  -7.6085730886145967e-57  -8.3456479012625900e-59  -2.0087201906690774e-43  -5.3793165427216641e-69  2.0925895486998688e-49  -7.9962879547073324e-60  -4.6392012236358740e-53  -2.7243025910140966e-50  -2.8216473154731907e-44  -6.6329825329853449e-43  -6.0907968051268864e-22  -9.2188795357577937e-66  -2.2734867128661299e-50  -7.2351935787539616e-38  -1.8176516732711129e-38  -5.0238452642330959e-63  -2.4682953040601533e-30  -7.3981234463341313e-32  -5.7124063385119493e-31  -1.1027255415807404e-34  -4.2553095314484691e-56  -9.0303608113548371e-39  -2.2449310564486997e-48  -5.1273416024092771e-45  -8.7403259977571141e-52  -2.2073845336095630e-54  -3.6630839321331969e-61  -8.0826882926963601e-43  4.2568181190828253e-41  -2.8546345926057261e-27  -2.0971490169229162e-56  -1.0059775252715571e-28  -1.8035873886457923e-33  -3.7440229350560314e-64  -5.8936447645494962e-47  4.2769487563815989e-52  -1.1009832361365377e-63  -2.4176902805232362e-41  -6.6648008402470338e-21  -3.4173463404200039e-32  -4.0956205794196527e-54  -2.0137647536316836e-57  -1.3346509886900713e-46  -1.8817088881963030e-57  -9.8760185235426736e-63  -6.2263006743681629e-42  -2.4150271771177456e-28  -7.8353264942370640e-70  -8.4126870333084731e-38  -1.2729477221164175e-38  -2.2326740906374819e-37  5.4864515693598488e-65  -1.7192201264932743e-45  -9.6706910835997406e-42  -2.3357485692846839e-52  -8.6344560851100727e-25  -7.8204897771311666e-33  -5.1807805535925440e-63  -1.9429300653091734e-41  -4.5253800040312351e-54  -6.1583422101332948e-58  -3.4394059418057651e-60  -5.3575693811289210e-38  -6.2121842463747045e-35  -1.8688253091479184e-48  -1.8923644199327727e-54  -1.9214216225232489e-58  -4.3411872359108212e-61  -3.7264765210963761e-34  -7.3020765016680314e-45  -9.6209614582574762e-61  -3.7611793328971444e-58  1.7089697225532472e-62  5.2471430531310830e-44  -1.2195853595406258e-51  -1.0180563620674106e-48  -1.0988845452211118e-56  2.7462910348799468e-33  2.2872637329411594e-64  -4.0293970262982489e-48  -8.9336754235318264e-37  5.7425798533430983e-57  -3.8729336303800427e-71  -3.4890044852341551e-31  -1.0568109860471849e-52  -1.2323194263798595e-42  3.3777240904280293e-36  -8.0773236388701351e-67  -1.1723154951045243e-47  -3.8990451437295719e-34  -4.3835123173966427e-59  -3.8939317961597855e-67  -7.3501663021182950e-61  -1.7136734510052063e-62  -8.1506619589313636e-34  -1.1664612194568742e-25  -3.1807848426168367e-42  -1.0453938985950502e-27  -1.8939898576899119e-51  -4.9498660917715624e-48  -1.2037231117412054e-36  -1.1132908327187394e-63  -7.3135484379632544e-63  -5.3803296946746510e-38  -2.5849020990249814e-57  -9.6132872652600519e-30  3.3445490303402062e-48  -1.3054924669614619e-23  -2.3272053947291020e-60  -5.6038213554873767e-30  -1.6650942116836175e-31  6.9021661507775134e-41  1.2603623034778583e-43  4.2802447643699586e-45  -2.4561174230799475e-50  -3.6659548922131369e-51  -6.4477767010115981e-48  1.6320899690158394e-26  -1.7111350290676559e-64  -2.1869948756175185e-65  -1.2344826592576026e-67  -3.3670125181534877e-58  -1.0749163845805379e-34  -3.3827608978855194e-65  -1.3984777404043057e-28  6.7804803925985570e-40  -5.2431906605871771e-36  -7.3377046490083970e-55  -2.7305223944561335e-41  5.4282836492587250e-47  -9.4299040942214224e-60  -9.0016293626621410e-45  6.1876765867168643e-68  -6.6901268629396471e-63  -1.3652895625294312e-53  -4.2138809454652226e-62  -4.8658405925491793e-52  -3.0517632309856507e-64  4.7124456310332325e-57  -2.8228919282478723e-47  -1.8481125912719813e-40  -8.5313761314058580e-29  -1.5287884494467604e-70  1.2207232378884447e-69  -2.8235610424316650e-60  -2.5770147219306975e-38  -3.0939346971955701e-49  -9.3950304999227625e-50  -6.5014689351016774e-51  -1.4485045780044175e-67  1.5598289308969148e-35  -3.0644375574051810e-56  -9.3501332731094342e-34  -1.7763794091601736e-31  -1.2244484838986761e-54  -8.4630618159974300e-50  -6.5468917507497916e-52  -6.2106244124301190e-62  -3.3021347459863296e-61  -1.2596240949474242e-43  1.0101720406245396e-32  -8.4274390423125636e-43  1.0753040093687538e-63  -4.1721344735145873e-56  -3.0743866290543595e-49  -2.8479716075376773e-50  -3.4303899808322617e-51  -1.8963498487122253e-56  -6.3771472767291640e-55  -1.1451340524442889e-61  4.0579530907403958e-60  -9.4351524437198310e-45  2.1751395441193719e-68  -5.0353484475997056e-57  -5.9886736050527107e-59  -3.6628395511725385e-54  -6.0729747621072450e-67  -3.8196648535718515e-65  -4.0544300957490996e-66  -2.2107660921524535e-71  -1.5447508356779936e-55  8.4143748492759602e-62  -1.4807387914189597e-32  -1.1127317035132055e-32  -2.1178756985442220e-47  -3.4292241671277260e-61  -1.9377242989436252e-64  -1.3872366886345099e-49  -1.1241149582685266e-69  -2.2158115771804549e-67  -3.8796727552899881e-41  -6.7673300974886021e-43  -1.0783815999895619e-68  -1.1361845406635685e-58  -1.3616968551742176e-46  6.8429887839621669e-34  -5.0340339409473116e-58  -5.8482278850528287e-58  -1.2428292671233311e-66  -3.0408525473340113e-19  -1.0827137743618553e-19  -1.3154214639701153e-21  -4.2055324483778333e-50  -2.1231238132726495e-70  -2.1999097581721597e-53  -3.6114566525205525e-30  6.2445485248785917e-67  -3.9567038857006151e-61  -6.0931328951270853e-51  1.5455591786145316e-50  -2.9305122209189376e-57  -2.5929875060276374e-71  -1.5255182384686256e-49  -1.3272241948847501e-63  -1.1449696773258812e-68  -7.3301099767636768e-27  -2.3208073283618402e-41  -6.4822471117205325e-49  -1.3661959917591879e-60  -3.9404978045390858e-65  -7.2226894672269447e-47  -1.9079367681738443e-56  4.0604633115763101e-27  -4.9242541400294575e-46  -4.5629822451143590e-69  -1.2327271985206166e-43  -2.6629037195586464e-30  -3.5631834567257105e-38  -9.1793231865276237e-54  -4.0285071360084166e-36  -1.0019884806292093e-40  1.9551080267897751e-37  -5.8357069436759279e-61  -2.2598662885426796e-52  -4.8241770695236770e-21  -5.9635355933939390e-39  -4.7372063731163648e-28  1.4591212499389865e-30  2.3815111825764232e-30  -4.2251011630964454e-24  3.8784306379224674e-25  -6.3357043790211436e-64  -6.8870026772315451e-66  -5.4184398629564842e-45  -1.5496198122859253e-42  -4.2578548080579436e-42  -9.7059595508147353e-40  -1.9155727821483799e-17  -4.3220749774164774e-56  -2.0331578976560734e-61  -1.2831736693202294e-40  -9.0196768010173856e-64  3.7243024252068630e-65  -1.2291237794796989e-66  -7.7619262368299129e-54  -6.3457460120831783e-66  -5.4252153941915228e-36  -7.9262576539017657e-61  -2.0586663683308222e-43  -6.4836436266199420e-59  -1.2859851348033282e-59  3.1945862843128670e-26  -6.6905901840254848e-23  -1.0528052687689375e-62  -2.1023223486603861e-47  -4.1367017153947283e-69  -2.3574997283173676e-19  -2.4372615199674768e-56  8.8186588394444522e-71  -2.4683352085374136e-28  -5.6153871734298534e-29  -1.9027434025527812e-48  -2.1500507032594435e-58  -3.5986604177485103e-44  4.1783457761000767e-37  -6.0460280483789011e-68  3.3620113371627238e-25  -7.1150796874323719e-66  8.1114313213489980e-61  2.2599798551800972e-37  -6.7857648197843226e-58  -2.4926863980859583e-22  -2.4870266619500234e-46  -8.4982021127613590e-55  -1.3700664124636426e-52  -4.7593410330682312e-49  -1.7864103043777380e-62  -1.8273068814830977e-55  -2.5782972593038949e-50  -5.1878124853953578e-39  -1.5599369840968611e-51  -6.9875354775310798e-56  -1.8484774127815377e-62  -4.8155298362212492e-64  -1.1389397312757851e-56  -3.8124421041351526e-38  -2.8186629506583337e-62  -4.5932261497789952e-65  -5.1596609927375189e-44  -5.3388172822594911e-72  -3.1520619613267479e-62  -7.0218756610557871e-70  -5.1885685438391253e-63  -2.0147904914651732e-64  -3.6521399714258294e-63  -3.7502391827381076e-46  -2.1541254579194067e-62  -1.0358720286987148e-66  -2.8890921811284550e-57  -6.2200168353562856e-54  -1.8139734753780006e-65  -1.3051087390870064e-65  -6.8616262044730926e-66  -1.3974243721779960e-33  -8.4391007138057533e-37  -9.7860159346208442e-40  -2.3941838318183551e-62  -1.8081632581796911e-26  -4.5025042611964171e-37  -2.8689233399011981e-60  -5.1287926811607739e-53  -1.2474259319619692e-64  -4.1612048017176959e-28  -9.2051839059425737e-60  -7.0599946015101143e-72  3.2708481342575084e-31  -1.2842874177992559e-50  5.5357221698929943e-20  -3.8923892523202898e-21  -1.3776209539318582e-66  -7.3340848182602210e-72  -1.6657153865478514e-73  -1.0423754964056656e-73  -5.1056186859089851e-43  -3.3311846965756178e-64  -2.3566566824196491e-23  -7.6935913189509443e-68  -3.2931419334108698e-70  -1.2753380712576913e-72  1.4945582922004352e-55  -3.3024561640195141e-57  -3.4284365385449380e-45  -9.8518197101438758e-61  -7.7241624058643166e-45  -3.0386264176888687e-61  -7.4163241030171821e-26  -5.2115905552724670e-26  -6.7437620230395135e-24  -2.6829587516901786e-63  1.2071548098248563e-27  -3.5081060757727837e-32  -4.0461311348675441e-23  -2.6232404618935679e-53  -2.9040245783267319e-37  -7.9471205167866613e-36  -1.1570945832377419e-53  -7.3705611281878429e-43  -1.7931481584204906e-44  -1.3154961098848703e-45  -1.3641524040671286e-39  -3.1660413446089673e-24  -3.0937168460593079e-21  -1.8651583609884830e-60  -1.1733532755310545e-54  -5.5779518248968119e-51  -7.4070868575247352e-59  -3.2782364458124168e-28  -3.2589849203579027e-64  -1.4204630090922888e-43  -2.9130059357780929e-53  -9.8566678994928762e-39  -2.1332004946416398e-29  -4.4946633002565769e-47  -1.3003116272153936e-51  4.9034613275592542e-45  -1.5894758005735414e-33  -1.4995435699057551e-36  1.6690881747066148e-57  -9.1692205104903019e-62  -1.1644298708913130e-29  -3.4092912167160974e-59  3.6746333167229676e-62  -1.7418418019937228e-41  -1.1813163873191620e-48  -5.7157854998008098e-31  -4.0867665179661472e-51  -1.6115245213144118e-26  -2.0246123855215592e-62  -1.3486907384853522e-44  -9.7811684954244897e-46  -1.6832959029606259e-58  -7.8338735069074391e-55  -4.2500133480867044e-55  -6.2428343165124106e-58  -1.1880974334756014e-56  -7.7427119627630839e-55  -2.0642332151766192e-41  -2.1702241233241923e-54  -3.6069840727419908e-47  -3.9964892387764760e-40  -2.0427415669189011e-49  -4.8595070738758160e-51  -2.3280445478166841e-61  -2.0508268128930212e-44  2.1569578580803138e-53  3.1287924926219005e-54  -4.5271067198586732e-55  -7.2291102116284236e-53  -2.5771752164856327e-43  -1.2196934360047076e-43  -5.7239381710553526e-46  -6.5956406766112028e-38  5.3099498936951948e-64  -1.4804419833404863e-57  -2.8345210500582707e-58  -1.7115710889403982e-56  -1.8809117825500112e-56  -5.1407594979033098e-58  -8.8421206431823937e-62  -3.5294955518648860e-49  5.8024389845528903e-48  -9.4460610557668713e-62  -1.3955825637628147e-65  -1.0333467671284061e-59  -3.6498505382601951e-47  -6.9745984831976887e-40  -1.4071073398799793e-35  -5.6055469955326182e-49  -1.3161346365107338e-61  -3.4617926741303776e-31  -3.4630141293486693e-46  -2.2106850709776401e-63  -6.9272232312594547e-27  1.4440300318234056e-59  -8.7916565938045607e-64  -7.3896408652635232e-64  -6.1915797172235136e-68  4.5169853226791046e-60  -5.565827