<?xml version="1.0"?>
<VTKFile type="UnstructuredGrid"  version="0.1"  >
<UnstructuredGrid>
<Piece  NumberOfPoints="6486" NumberOfCells="12696">
<Points>
<DataArray  type="Float64"  NumberOfComponents="3"  format="ascii">0 2.5 0  0 0 0  2.5 0 0  2.5 2.5 0  1.25 0 0  2.5 1.25 0  1.25 2.5 0  0 1.25 0  1.25 1.25 0  0 0.625 0  0.625 0 0  0.625 2.5 0  0 1.875 0  2.5 0.625 0  1.875 0 0  2.5 1.875 0  1.875 2.5 0  1.770833333333333 0.7291666666666666 0  0.7291666666666666 1.770833333333333 0  0.9375 0.625 0  1.875 1.5625 0  0.642361111111111 1.163194444444444 0  1.341594827586207 1.883979885057471 0  0.46875 0.46875 0  2.03125 2.03125 0  0.3626104797979798 1.513178661616162 0  1.381740196078431 0.4564950980392157 0  0.9375 2.172619047619047 0  2.172619047619047 0.9375 0  2.096354166666667 0.4036458333333332 0  0.4036458333333333 2.096354166666667 0  1.684027777777778 1.163194444444444 0  0.3418803418803419 0.8693910256410255 0  1.642742622813391 2.162164207604464 0  1.275619849389031 0.8465650753054845 0  0.9136284722222221 1.434461805555556 0  1.732437511238546 0.3406962303960658 0  0.9714402568595876 1.029779313093998 0  1.52281746031746 1.485615079365079 0  2.1875 1.71875 0  1.06819722569879 0.2997236128493951 0  2.136114211309524 1.303478422619048 0  0.3125 0 0  0 0.3125 0  2.5 2.1875 0  2.1875 2.5 0  0.3200021620376328 1.192323085056694 0  0.6738456129277992 0.8304377375553881 0  1.757891808928991 1.861952730357003 0  1.5625 0 0  0.9375 0 0  0.3125 2.5 0  2.1875 0 0  2.5 0.9375 0  0 0.9375 0  0 1.5625 0  0.9375 2.5 0  2.5 0.3125 0  0 2.1875 0  1.5625 2.5 0  2.5 1.5625 0  0.7448220909826522 0.3003573636608841 0  1.027298850574712 1.871151477832512 0  1.331260495098891 2.197262878816185 0  1.207917681892289 1.582765010956622 0  0.4339993447432606 1.801186844743261 0  0.6337298768939392 1.443093039772727 0  2.049851190476191 0.6826636904761904 0  0.6584821428571428 2.219122023809524 0  1.89575676467455 0.9798457973793544 0  1.437570562095628 1.059380588255917 0  1.502090052505845 0.6987070896496241 0  0.2040860661083546 1.705323965099331 0  0.2083333333333333 0.46875 0  0.5070952039991439 0.2211150679997147 0  0.6916302856529919 0.5813591430410241 0  2.265625 1.953125 0  2.2265625 2.2265625 0  1.886424081252096 2.243391360417365 0  1.40625 0.202164758520858 0  0.2269345238095238 0.2269345238095238 0  1.152730869673694 0.5225850378741401 0  1.885631899587912 1.312095130148776 0  1.614808884009367 0.9049784971014416 0  1.890095442220658 0.5126535558463003 0  2.323168682795699 0.46875 0  2.268811725689575 0.2304742875213018 0  0.6002389442105756 1.967426444210576 0  0.1768313172043011 2.03125 0  0.2311882743104251 2.269525712478698 0  2.03125 0.176831317204301 0  2.280262553344767 0.6954945504579233 0  1.979219539285994 1.809922269642997 0  2.336309523809524 1.09375 0  1.09375 2.336309523809524 0  0.9314042474388009 1.662973812215543 0  0.1634067999087722 1.40625 0  2.337090640094896 1.40625 0  1.141616997467638 2.069311773587991 0  0.46875 2.338939559681489 0  1.542440307908715 1.734944797244472 0  1.556713687786879 1.956977865354753 0  0.8264238995344066 1.975424467820646 0  1.466326331454725 1.275271369760862 0  1.655675324257095 0.5444159974393489 0  0.3385416666666666 0.6479255698005697 0  0 0.78125 0  0.5236073939200119 0.984090461540625 0  2.091665741047893 1.519793517904215 0  1.71875 2.5 0  0.5356538886262603 1.623137930505009 0  0 1.09375 0  0.1932884281517095 1.015625 0  0.8569313582417669 1.2198915584249 0  0.8876981284879677 0.8329884081524883 0  1.115618488474214 0.7219586973356271 0  1.186950366204949 1.043465130075318 0  2.057459118787237 1.110823087309335 0  1.830651283878689 2.049810069572418 0  1.689107969301489 1.367247437031697 0  0.4921048768039656 1.298643370653124 0  0.8213975694444444 2.336309523809524 0  2.03125 2.5 0  1.049729400480002 1.283723261332814 0  1.308101375801673 0.6489479469700392 0  2.5 2.34375 0  0.4968777175037714 0.7562964879736076 0  1.40625 2.5 0  1.501347663534097 2.307027627307738 0  1.602813712048603 0.1926218191360736 0  0.8393082906308107 0.463778306132633 0  1.682663349152719 1.598471865581041 0  0.7774174680851571 1.560004941327907 0  1.554204170364662 0.3898593897892066 0  1.842184459051087 0.186443880058197 0  1.358107417651776 1.696381759610015 0  1.18859291992392 1.77598670078022 0  0.1875331222687418 0.7609599743339348 0  1.339536743965101 1.422080365801479 0  0.7788179348750389 0.9955343414928611 0  0.9062978492805438 0.1919636509126373 0  1.256007360640958 0.3160320559396114 0  1.09375 0 0  1.174986727221844 0.1594990293443933 0  2.34375 1.796875 0  2.318026474511116 1.589177949022232 0  2.34375 2.5 0  1.672742954892153 2.332882724550692 0  0.2683637361947215 1.874801596909639 0  2.174770749820102 0.5581009131310781 0  1.443279522965991 0.8870068372898454 0  0.3385416666666667 0.3571428571428572 0  0.78125 0 0  2.060421048269335 2.314363248763811 0  1.088078737088509 0.8967352118723447 0  1.087825368444708 1.454931510884769 0  2.018308232129541 0.8548495425854904 0  1.943987311736842 0.3246298523011434 0  1.71875 0 0  1.85337849796276 1.144833312386208 0  2.3486328125 2.1044921875 0  1.407588788651747 2.042968789119587 0  2.336309523809524 0.865366648092144 0  2.34375 0 0  2.5 0.15625 0  0.15625 2.5 0  0 2.34375 0  0.1638044648294291 1.242263417405867 0  0.356216654757926 1.032569427322806 0  0.3188217956111817 1.355736727000647 0  0.5924956460852111 0.36112522004736 0  0.6594216488965849 0.1603472116132387 0  1.841804599497131 1.72214349266521 0  0.15625 0 0  0 0.15625 0  2.115898634821499 1.894570904464496 0  0.7821877980253907 0.7129993435924866 0  1.003820447087786 0.4516053462784233 0  0.477562948779147 1.138333049293613 0  0.719493678605015 1.305655360135975 0  0.9772457618587566 2.020350128938537 0  0.8764738248887107 1.826219722709673 0  1.254787875123819 2.339010653832026 0  2.343597354852534 1.249982759769001 0  0.78125 2.5 0  0.46875 2.5 0  2.5 1.40625 0  1.09375 2.5 0  2.5 0.78125 0  2.5 1.09375 0  2.03125 0 0  2.5 0.46875 0  1.40625 0 0  0.46875 0 0  0 0.46875 0  0 1.40625 0  0 1.71875 0  0 2.03125 0  2.5 1.71875 0  2.5 2.03125 0  2.005424054645407 1.653223486966518 0  0.1538730573856537 1.559850281736677 0  2.33984375 2.33984375 0  1.166539506212474 1.922878979538754 0  0.3914885633949916 1.65887232812171 0  0.5795503163042564 1.766243562569382 0  0.399533125920212 1.946786875081388 0  0.7866324979014098 2.127719094551316 0  0.3654683023546834 0.1495701132219454 0  0.1527388747131078 0.6116379440619215 0  2.013737577140188 1.391056634712135 0  1.17635437372994 2.213329084238133 0  1.737118141866284 1.010577140843115 0  2.200707118087222 1.164723314085963 0  1.697018908736685 1.993548551451517 0  0.5387621649009668 0.6070503962352419 0  2.032805785855952 0.5330427622570983 0  1.082699501358059 1.667818725183932 0  1.503819781540653 0.5468420196858188 0  2.015409142866072 2.175941657590429 0  1.752057611265444 0.869642097111018 0  0.612251684107783 2.356045720700959 0  1.902817102342857 0.6607642211999982 0  2.159616561739693 0.7867739969338844 0  0.5120038350106624 2.197302352398502 0  1.888200216011548 1.919501662489862 0  1.495909909726654 2.16028358757309 0  0.489139876703609 1.443203008943564 0  0.8819175670410521 0.3301172743913011 0  1.882591144370812 0.8155965192707721 0  1.133979796994841 1.172526771862882 0  2.206217447916667 2.084147135416667 0  2.20361328125 2.36279296875 0  1.395746985657004 1.556054166359645 0  1.704383111516207 1.734750450338683 0  0.9575737847222222 2.36274223823052 0  1.035150984253136 0.1302833343179028 0  1.383966125325753 0.7651479963479179 0  1.64003252158672 0.6824316405528895 0  2.22550785055421 1.487078576356817 0  1.760964431499756 1.48495222505201 0  1.276460980673788 2.004207003584658 0  0.1341477688427096 1.828777507920502 0  1.542261434180652 1.155296658359034 0  1.334627911613854 0.9696897472490321 0  1.30794231473696 1.119420615785191 0  0.7028260459857245 0.4438906910721139 0  1.625757433094055 1.84268057552138 0  0.9818707849053143 1.165603626132254 0  2.0086489901463 1.243134585689553 0  1.934584460420609 2.374094051915812 0  1.798434376789567 2.38671361912528 0  1.206314791201715 1.382064292497919 0  0.6333752893366955 0.7023738550008095 0  0.7796219811205605 1.42573253164258 0  1.564399711917382 1.026040828857629 0  0.3385416666666666 0.4889012896825397 0  0.1041666666666667 0.390625 0  0.989112246382566 1.543537365516289 0  2.025724425454636 0.9846960595520872 0  0.6602885475034063 2.086117390485779 0  1.607130551925032 1.267198646640915 0  0.1317864544877056 0.8896173683400176 0  1.755387840017567 2.230364320056445 0  1.301540702984401 0.1216289692748247 0  1.433170657577442 0.3331052752740999 0  1.500459610550388 0.113513924782439 0  0.6494291520606965 1.029586599619295 0  1.010146149868299 0.794897284196169 0  0.3700844198238017 2.235390157870766 0  0.3360891767780704 2.36656279435396 0  1.876856241037701 1.437150669863757 0  1.778674102957329 1.245979347269706 0  0.5472829890977179 0.1005517127039925 0  0.4669074189005698 0.3416784232954367 0  1.472765289289269 1.850899166481903 0  1.555853593327178 1.608452097912802 0  0.6708955559113426 1.646561631116984 0  0.8164699620322933 0.5924479455478063 0  0.3167738989468366 1.758696809749795 0  0.2788007305565096 1.605499483471246 0  0.7821720982350511 0.181524936294752 0  1.376812251214195 2.313340247908297 0  1.785652202614777 0.5962261755537186 0  1.761467296310972 0.4679567244718574 0  2.2265625 1.8359375 0  2.3828125 1.9140625 0  0.5279531607054191 2.071552361614785 0  2.397573269551114 0.234375 0  2.383578172599618 0.3589298466020009 0  0.1024267304488855 2.265625 0  0.1164218274003825 2.141070153397999 0  0.2696857594953064 2.135405441512016 0  2.164961300137334 0.1375322943529536 0  2.137757548369486 0.2724194778647587 0  2.238873711826398 0.3626419179496562 0  0.1001414910226386 0.234375 0  0.2176339285714286 0.3478422619047619 0  0.2503620791333544 0.1061694061057066 0  2.336445461915368 0.1250451055247424 0  0.2154004640409726 2.3918124
[...]
<PointData  Scalars="f_124-2"> 
<DataArray  type="Float64"  Name="f_124-2"  format="ascii">-1.1178055935651486e-17  -5.8203902136306164e-14  -2.2371076052608916e-20  -4.1463019856773185e-21  -8.5634525205020834e-15  -2.4395148398515430e-19  -9.3917794308136226e-18  -1.0197811108574941e-12  -2.7595876006390247e-13  -1.5630224184102625e-12  -5.6107182283323537e-14  -1.3401421072824800e-17  -1.7600455391650439e-14  -9.7150704610089972e-21  -4.7727920576707315e-17  -2.5282218600654438e-19  -9.1715150043630923e-19  -3.3290402592216322e-16  -4.5787834131061658e-14  -2.4002696813992537e-13  -1.4741571414829289e-15  -1.2142559719577648e-12  -8.0177166678365958e-15  -7.7761729975606465e-13  -2.7606295628073758e-17  -3.1191706983228624e-13  -5.0176226313110103e-15  -6.9451629593025630e-16  -5.8178758215108045e-18  -2.8214166997364314e-18  -1.8075602021013926e-15  -9.6390386288134222e-15  -1.8216301199508652e-12  -1.4720064426015254e-16  -9.6779622476345931e-14  -4.1410297130915300e-13  -1.8825435637382691e-16  -8.3350379947620394e-13  -3.4984667547125328e-14  -2.5611826425917168e-17  -2.2822336896598031e-14  -6.6638910787452488e-17  -6.4511828767185892e-14  -5.2278316994250942e-13  -5.3983555042311701e-20  -7.4242239557312237e-20  -1.1443884621860131e-12  -1.4121052761583808e-12  -9.3293808968527850e-16  -8.9197157029697171e-16  -3.1313369818208160e-14  -9.9866311299939380e-18  -1.1393689210505250e-18  -3.1622751833120644e-20  -1.7255117141547512e-12  -2.4463187850963269e-13  -1.0125045031763672e-17  -1.1788834958964725e-20  -5.8245956212061774e-16  -4.0577451991984673e-18  -5.0169395982161970e-19  -7.0145311362937978e-14  -1.5617312759771191e-14  -2.9966883627717395e-16  -1.0377075529303538e-13  -3.9652078593453715e-14  -4.3714182149995234e-13  -7.5338626403033095e-18  -3.9347250331252762e-16  -3.7223635165995743e-16  -7.0171839465426138e-14  -5.3159146443779713e-15  -8.9199181323493332e-14  -1.0781109454886330e-12  -1.0794789522626099e-13  -6.1151552451069404e-13  -3.3521165269456108e-18  -7.5847377607314229e-19  -1.2346732193776234e-17  -3.2524641204352288e-15  -2.6250158441748701e-13  -2.9082440564168723e-14  -1.4276107360280303e-15  -6.8579198030543441e-15  -3.8420677144808313e-17  -1.0960472287067039e-19  -2.9129722694545775e-19  -7.5861953472332023e-15  -3.5651395766683709e-15  -1.9772480915633210e-16  -6.8278983066133318e-18  -2.9298889148085265e-19  -1.8139037107852950e-16  -1.2333552459186238e-18  -8.0219797742485870e-17  -9.6576869113341735e-14  -5.6700338527673798e-13  -4.3924586226450329e-18  -1.8568385239422916e-15  -9.4707713517154202e-17  -9.5966813720730895e-15  -1.5921875986037178e-15  -6.6977505944737394e-15  -7.4083227128021073e-14  -5.8172088306529699e-16  -1.5962956023264007e-12  -1.8044386661430498e-12  -1.6625437636935114e-12  -1.2273668347571746e-16  -2.2945271672596173e-18  -1.4562477242971224e-13  -1.4341560106747096e-12  -1.5919493533724462e-12  -9.1078807880490571e-13  -7.7046637226660113e-13  -1.4141599367431560e-13  -3.4575003943572732e-13  -8.8797800279993024e-17  -1.1722101407927269e-16  -1.1310448748537516e-14  -8.1319340799562477e-13  -8.8453963665033654e-17  -3.0604595933671772e-19  -4.9784711799790935e-13  -2.0417906656262369e-14  -1.6043850755288093e-20  -1.6647225072903551e-12  -6.4844017327796328e-18  -5.0287488219985080e-17  -6.4049072659497819e-16  -1.3490560006511395e-13  -7.0055291458121223e-15  -2.0661741126775890e-13  -1.1829648703779513e-15  -5.4014020918249303e-17  -3.2064818900640440e-14  -2.9050680505859830e-14  -1.7980060729649421e-12  -1.2515935896945272e-13  -1.3074903955420110e-12  -3.5179591018607682e-14  -9.4041216446038009e-15  -1.8094857353941777e-14  -1.3961131624903396e-14  -2.5451536709078508e-18  -5.9404605422985824e-18  -1.8009614055873206e-20  -1.8822648972697524e-17  -2.0281244929043145e-14  -9.7725789721466605e-19  -3.0993779106699884e-14  -5.9327753919606818e-13  -4.4132133686959619e-14  -1.4705256068785588e-18  -3.9260753528724680e-13  -2.6830739794025707e-13  -3.0366488192683099e-17  -1.8419774759323388e-17  -2.3539426089146769e-16  -1.3757787676034578e-15  -5.0770286110937033e-19  -1.2967311006379677e-15  -2.4618595385888777e-19  -1.6699055379385621e-19  -1.7450907733358253e-20  -1.0834029965044882e-17  -6.6866671781919575e-17  -1.0064090045970461e-12  -1.5974937731872511e-12  -6.7184108805532608e-13  -2.2501661735843187e-13  -5.7558398820882127e-14  -1.0119054545608819e-15  -5.7594250244970646e-14  -1.4101112207771361e-13  -2.5962051492906827e-17  -7.5330287489347270e-13  -4.9900252331685674e-14  -1.3326080343178447e-12  -7.7871721519386103e-13  -3.9307137359124940e-15  -2.7080034412210655e-14  -6.6770559110308813e-17  -2.3919166282648285e-18  -1.0901202430915380e-17  -1.0826988881974071e-17  -4.3330255924672471e-19  -1.0026289706927263e-17  -1.4622605576789794e-20  -9.9673786374067259e-20  -8.4640800649836066e-18  -9.1080273668060164e-21  -2.8275502583154301e-15  -6.4416506788372104e-14  -1.0644988225528765e-12  -5.8503023148398469e-13  -7.8438573316763262e-14  -3.9038649140955877e-15  -4.2201539173059489e-19  -1.2393274697581276e-19  -2.6616846942435594e-16  -2.4505632725868403e-13  -8.5724617971911381e-20  -8.1584472270198338e-15  -1.2915345587802006e-13  -4.7590717783603816e-14  -9.9181224175707366e-15  -1.2199573152325192e-15  -1.0449959703192727e-13  -1.5412239865663470e-12  -3.4685946521874105e-16  -3.7145394943384462e-16  -3.0524832019041509e-15  -1.3658669262847607e-17  -5.3773110818414500e-16  -1.1418968529470846e-12  -7.0573630071027929e-18  -8.0457099033683026e-14  -2.2717807448035917e-15  -8.4613355151728569e-18  -1.1232341761835284e-15  -6.9028335156219408e-17  -4.8472434927460044e-17  -2.5245389723463798e-18  -5.6541170455297929e-16  -2.1295521406915297e-16  -2.7483566219836462e-16  -4.3820083362959644e-13  -4.8506471285090258e-14  -1.2704267412123452e-16  -4.7274159131755351e-13  -2.8466619112153565e-18  -2.2365774190713161e-19  -5.4708752834354449e-14  -2.9300542758147623e-15  -5.5346345392292671e-17  -2.4207565806871901e-14  -2.4699963179521321e-14  -1.0805750144621061e-15  -2.4108058045958113e-17  -5.3366608396330953e-15  -3.0061560848148668e-15  -3.2368783116337486e-14  -3.5937455053660452e-14  -1.0885227771155016e-13  -1.9240523737188951e-13  -2.5303048693869006e-13  -2.8134133490388111e-15  -7.6454759446561951e-13  -3.1174320094242262e-16  -2.2541479871803858e-18  -4.7863186928058320e-18  -2.4663615123668656e-13  -1.2027055589171709e-12  -4.5528041417045782e-13  -2.0974139101281859e-14  -1.0855388240434460e-12  -7.8134393341242312e-13  -2.0680586977390303e-13  -6.2846930655143890e-17  -1.9059334705343471e-15  -2.4387756032026876e-14  -1.7844007863287351e-12  -3.8625167691095582e-17  -6.5267862127461798e-15  -3.0192813654251347e-15  -1.4952764673139546e-15  -1.4942354166983008e-12  -3.9178287654945006e-13  -3.6044039967804449e-16  -5.4718455890910675e-17  -1.6497751863608944e-15  -4.3297055030581502e-15  -6.2922470831526411e-14  -3.5094728351677516e-13  -6.0423743366189828e-15  -1.6476487107339683e-14  -1.1582684821541023e-13  -3.8526027501901750e-13  -5.8323522567032759e-14  -1.8724873543161248e-13  -4.7017368478314020e-14  -6.4988965567804797e-17  -1.6451139165180902e-16  -1.6097554479991309e-16  -1.0649257518628097e-17  -9.0708732863904729e-19  -2.5280497281504124e-15  -4.4129932966633477e-20  -5.0985996524877460e-20  -2.2938055019405021e-16  -1.1299400892038780e-15  -1.2033989524711857e-15  -1.3407718188029607e-18  -1.7119749650068745e-18  -4.4175668946316827e-19  -2.7145017003961599e-13  -6.4105085455860525e-13  -8.9457867907074517e-14  -1.3306043622815101e-19  -3.9558102690620816e-17  -3.7398007300612137e-16  -9.3892727663789810e-14  -2.1335184151322678e-16  -9.5552393092623263e-14  -1.7404697653797231e-14  -1.2572371637981260e-14  -6.3093775597154922e-15  -1.4720350691268464e-14  -1.1952413757467388e-12  -9.6330853759214556e-15  -2.2497635450766880e-17  -6.0926529360116470e-20  -6.8492845021078942e-20  -1.3457068089431618e-19  -5.4538511674821693e-13  -1.3946054688705143e-14  -1.6292239580779382e-14  -7.9036950795643440e-15  -3.7583811299471103e-17  -4.0859617198753885e-14  -6.0185534775539676e-17  -1.7823156220565351e-12  -8.7899154373277164e-14  -3.9946636307914445e-14  -1.4390150859519444e-18  -3.8784953389208179e-14  -5.8613055580428949e-18  -8.4324671000977403e-16  -1.2917797498036185e-12  -2.4337596955441652e-19  -1.7341122429103158e-12  -8.9196528457968963e-13  -8.8871819283677956e-17  -7.9419180688030101e-17  -1.2349139875909247e-17  -2.5601797671281842e-17  -4.3175585961828779e-13  -7.9546493230169133e-13  -1.2884501392565108e-18  -1.3385674540808103e-17  -1.0958542481520624e-12  -4.5861999406227872e-16  -1.9007712902910456e-15  -3.2193530100909113e-17  -1.0138535021028785e-16  -1.3643919847763295e-18  -4.8625147660945768e-16  -1.0300549599596951e-13  -3.6232271438837508e-17  -6.3786828079917950e-13  -1.7945406094864664e-12  -1.2714624002867656e-12  -1.4346321626276021e-12  -4.7640198572727005e-16  -1.4746748826652770e-13  -1.2145374871046426e-12  -9.7970225428125496e-19  -4.8948421592566892e-19  -1.8519118880678699e-17  -3.4923421041924904e-17  -1.6119192947359597e-20  -4.7958765960302882e-16  -7.8520532014797142e-17  -6.3238010394923504e-15  -3.0705792036662977e-19  -1.3290545538111810e-15  -1.5968618489609364e-16  -2.3435295494047912e-15  -1.0503379538039966e-14  -1.5672548857314472e-13  -4.1029624396381249e-13  -2.4375635933347384e-13  -3.4239844984480651e-18  -2.3843973986104594e-14  -6.2962048883737957e-13  -2.3860004409895303e-13  -1.1744293659733236e-17  -1.6170013668956320e-12  -5.1487253497010279e-13  -1.0544785490140467e-12  -6.9022260434671663e-13  -2.9322389822068740e-17  -6.6737349338687166e-13  -3.4752017166291033e-14  -1.4967996288348346e-13  -5.9096277704378850e-15  -1.2572473752604248e-15  -1.2364050753179135e-18  -2.4121180326760219e-13  -1.0402476714712048e-14  -9.2393546315966475e-14  -3.3972524894335574e-16  -1.7788581949750865e-12  -1.0321359823663024e-12  -8.3484476763433597e-18  -7.2066346802715288e-14  -4.9471724486506030e-16  -6.3937630245985090e-18  -4.2805244734473567e-13  -1.2101483753394049e-12  -1.6428517956882462e-12  -2.8058154257525707e-16  -2.3471410340508819e-17  -1.0179762843145952e-13  -6.8104467258468882e-17  -1.5495886893065587e-17  -2.2500627990468281e-13  -1.6742239869494323e-12  -5.5111854743206433e-20  -4.5172621414884909e-14  -6.9907653026733008e-14  -1.7705043307709981e-13  -7.5854936941484786e-19  -8.1600729920135856e-14  -2.4288709470614806e-13  -3.8403438763747271e-15  -1.5084255199104390e-12  -1.4384456924422385e-12  -1.1903672358199958e-17  -3.7462633441321822e-13  -3.3769043725430108e-15  -4.5572554131510186e-16  -8.9984932765932761e-17  -6.2276155144194045e-13  -1.0408029911826437e-12  -2.1524367163628945e-14  -2.6550028796617844e-15  -3.6417815655693589e-16  -7.7906720537621012e-17  -4.9833099177320537e-14  -1.7914662902273287e-13  -2.6398001771370899e-17  -1.4436232073259369e-16  -6.0953691325383762e-18  -8.6621324012397570e-15  -4.8294171660819433e-15  -3.2410170793712208e-15  -7.6731447520096490e-16  -4.7993910823204453e-14  -2.7564307904892333e-19  -7.2373565218653241e-14  -5.6375698936374626e-13  -7.8749673852023018e-17  -5.7499065052692231e-20  -1.4308377882907418e-12  -7.4138595958499126e-15  -1.0273560094619132e-14  -3.1476694600133119e-14  -4.5580436364044061e-19  -6.0385262172995066e-14  -1.4256809640901842e-12  -1.4724808916171486e-16  -8.5841536569140453e-19  -1.2475323240055465e-18  -9.2669331131284690e-18  -2.3983823225444390e-13  -1.7367498786876707e-12  -3.4383166051901543e-13  -1.8096118689758030e-12  -1.4456656631386723e-14  -1.4144139888256243e-15  -9.0386328519976473e-13  -3.0796059163147208e-18  -4.5195679330487237e-18  -6.1483404595630822e-13  -1.8759763164261135e-16  -1.7303637219032986e-12  -1.0759839769943597e-15  -1.6631143735100543e-12  -1.8359295518893322e-17  -1.0748581924542391e-13  -1.7425932496952732e-13  -1.4777729216248348e-14  -5.8286104488134354e-15  -5.4210610781575976e-15  -2.0862934266397631e-14  -1.1978185302294026e-14  -6.2612267371398781e-14  -7.6024582365916270e-14  -9.8837799208985461e-18  -4.2633065492978549e-18  -8.6130823369970935e-19  -1.8314029926380328e-16  -1.1355661650722730e-12  -3.1118595320211908e-18  -3.0826512317674123e-13  -2.0115641296871648e-14  -1.0425925209933388e-12  -1.1080742990523839e-15  -2.9611468732931632e-13  -2.4618294745982644e-15  -9.0527020523972058e-17  -1.9743572297979734e-14  -1.9845364735789196e-20  -5.5300380916899345e-18  -8.8389785319930914e-16  -3.8004404826108004e-17  -1.4486587207060847e-14  -8.6893879049789590e-18  -1.4418946562469358e-17  -1.6705975255291581e-14  -3.3441336095135735e-13  -6.5383506699806355e-14  -8.4738909297219252e-21  -3.0768800543799585e-20  -2.8633424049255287e-17  -3.0985178235546280e-14  -2.8432442422506095e-14  -4.3244168907176038e-14  -9.2445428434409754e-16  -8.6689881819912512e-19  -3.3893362715098664e-14  -8.3145319965663355e-16  -9.7226249581889129e-14  -1.5742281812116231e-12  -3.1572496293577364e-16  -3.8575873543998900e-14  -6.4474172021829326e-15  -2.7848533157221798e-17  -3.5216618497863083e-17  -1.7777572296669347e-14  -4.6747685659194705e-14  -1.9006402318930293e-13  -2.9843851356245093e-19  -4.7414033145829516e-16  -1.5919738985749272e-14  -3.5036805862106337e-15  -1.2544797790150358e-15  -8.0721669102828239e-16  -3.8062293772595079e-15  -3.4605530999418765e-17  -3.0190540346241029e-18  -1.0460800776908295e-14  -1.2003078542538517e-20  -1.8349630128981366e-17  -9.2878115502547343e-18  -1.0717640759286571e-16  -7.3978543524548771e-19  -3.0636335564360824e-18  -1.1803356154857348e-18  -2.0895460682229310e-20  -7.8530448412550365e-16  -2.2227547882798016e-18  -1.3902123676522640e-12  -1.3852885139534531e-12  -7.7231843193783068e-15  -5.4283552360691114e-17  -5.5559826520881035e-18  -1.0907061429092125e-14  -1.5644957309609104e-19  -8.8137685959287737e-19  -6.4590043157466574e-14  -5.4312195470819325e-14  -1.4907885339486413e-19  -5.8354279534123332e-16  -5.3980071096998842e-14  -5.9143135964793344e-14  -3.4689107411807156e-16  -1.3272501545594659e-16  -4.3602474651983937e-19  -4.4010063351437121e-13  -8.6242089376657682e-13  -6.6267329559553640e-13  -1.6123745420682803e-14  -4.2269478762824281e-20  -4.2145830794243700e-15  -1.7933945051618640e-12  -3.3453251694470702e-20  -9.7272204770721804e-17  -1.4186514032550746e-15  -4.1807939332756148e-16  -5.1661295386156760e-16  -4.4382341163250432e-20  -3.1363105427808793e-14  -1.2743866013938903e-17  -2.8686109167480689e-19  -1.8252210944718429e-12  -2.7976599129140231e-13  -4.0781880697650447e-14  -8.5542406852647106e-18  -7.6793611440028778e-20  -4.2667577278950465e-14  -1.2002256582432973e-15  -6.8931680945396269e-14  -3.1417126757482746e-15  -1.8186927392821117e-19  -2.1338988338037685e-13  -1.6673168291380807e-12  -6.4339400646898571e-13  -4.8233237086544926e-15  -8.7617136919744804e-13  -1.9929898631457482e-13  -3.1373951544737780e-14  -1.6133868804773527e-17  -2.7962839494457036e-16  -2.1273040547989021e-13  -6.7756165663828823e-13  -1.4151182059457620e-13  -5.7091409670345552e-14  -6.5566803583518348e-14  -4.7579328829668218e-13  -1.7397771666696707e-13  -2.9375861278254798e-19  -5.6156230842384233e-20  -1.5866985669763183e-13  -3.0105284320826823e-13  -1.2366260870303002e-13  -4.7153257064988269e-13  -5.2092632049932188e-13  -1.3464095486997567e-15  -2.9504113871937825e-18  -2.4989253413753018e-14  -9.7104499149911615e-18  -3.3768357075802223e-19  -1.4636781369291853e-18  -3.5445155385075669e-15  -2.9582334505906220e-18  -2.7928260575278013e-13  -6.8730049698500370e-17  -1.3094150180609570e-14  -1.3116749104908125e-16  -7.1667512632449875e-17  -5.8064733848799939e-14  -6.2354033496403605e-14  -2.3765180586064353e-17  -5.0198477976234178e-15  -2.4363571317773370e-19  -1.7683720903503847e-13  -1.4140530204146419e-15  -2.1358605591974144e-20  -8.1801776459541854e-13  -1.1078488620182199e-12  -3.2570267193944000e-15  -1.9730929689380026e-16  -1.4201852562820603e-13  -2.5362014140164233e-14  -6.0160715728787032e-19  -7.1903516815874595e-14  -7.5903762902882848e-19  -6.1813630174773856e-18  -2.7770371446267917e-14  -2.6939791311676496e-17  -1.3882753510363278e-12  -1.0207611037525304e-13  -8.5609959577008949e-16  -2.9236310843936815e-15  -1.9867254501264980e-14  -3.1093271326078257e-17  -2.1300624361670969e-16  -1.8751487293257381e-14  -6.5642979364133757e-13  -1.3473162719273596e-14  -6.2843276638851503e-16  -3.4777302634255235e-18  -6.8955788108249933e-19  -1.3804474482658136e-15  -1.0145912057673194e-12  -1.4832190033251478e-17  -1.3063897778004265e-18  -1.2555047370649434e-14  -3.3787647095534797e-20  -1.0904702178153237e-17  -1.6288994063535650e-19  -2.5790843605350759e-17  -1.1604818831321500e-17  -7.4996353913979107e-18  -1.4732960864623229e-13  -1.2240342897579630e-17  -5.1690841667184625e-19  -9.9303691528592276e-17  -4.7356827563491148e-16  -1.6004493974249431e-19  -3.2975770889441381e-19  -4.8412038723983952e-19  -1.5987191830609435e-12  -1.2272490291979158e-12  -8.0837279796621816e-13  -9.8788121730610485e-18  -1.7211492704401297e-12  -3.7669972000957384e-14  -2.0855753467390493e-17  -8.9264851603800555e-15  -1.0386152734254548e-17  -6.1406841468022082e-14  -1.9325596095451326e-16  -1.3633005838298226e-20  -6.1566225102085330e-14  -1.7190569195865936e-15  -3.0115934434333016e-13  -7.8218035998304804e-13  -1.4619704972770817e-18  -2.9454119471046466e-20  -8.0865142496749917e-21  -7.7448747253128211e-21  -3.7872569323036264e-13  -4.8228669207313411e-18  -1.3471246167257453e-12  -3.5725853096233269e-19  -8.8917175513265492e-20  -1.0153781445789680e-20  -6.7773532785538196e-17  -3.6578856681440117e-16  -1.2223020353356693e-13  -2.5697278660797470e-17  -4.1416356749913967e-15  -2.3984145279748747e-17  -7.5974889633671266e-13  -1.4346593954453215e-12  -9.9982972661918932e-13  -9.9113086403876761e-18  -6.6137797833827424e-14  -1.2140975368902613e-12  -1.4751599031811865e-12  -4.4827786285922581e-15  -8.7822541798624347e-13  -5.2562544992679675e-14  -1.7854309593660321e-15  -4.0606404004454009e-13  -2.5640353702850369e-13  -1.6509216595893951e-13  -7.6176011020436594e-13  -1.6996216962187368e-12  -1.3459007555066207e-12  -4.8101655791271629e-18  -3.2062958023061694e-15  -8.0598255903819497e-15  -2.9166571281152822e-17  -1.4607006069961046e-12  -1.2980291998967558e-18  -2.8766698853185188e-13  -2.5505742171410340e-15  -6.0756579917486715e-13  -1.7477635690347735e-12  -7.8151805175020742e-14  -5.2168031027348144e-15  -3.2187899096788228e-15  -1.3537753711445520e-12  -9.6886344360203559e-13  -2.5246506387935446e-17  -1.3577747802369769e-18  -1.7221017122767431e-12  -4.2895900587693934e-18  -8.4352595137239214e-19  -3.5533478888284727e-13  -6.6721577168676214e-15  -4.0494982497932847e-13  -6.4956001106417155e-15  -4.6514939729863769e-13  -1.3890892232459690e-17  -9.6603414288963969e-14  -6.2997831090860761e-14  -2.7444278240601676e-16  -9.1015473324926772e-16  -5.8455776593079876e-16  -1.8517358466680360e-16  -2.0458378038553119e-16  -9.3547060211301411e-16  -5.8491957457493807e-13  -1.9801589688358926e-15  -4.3660669923577724e-14  -4.9176260447044076e-14  -2.0683651318876292e-14  -1.4533148581469364e-14  -3.3335389780907166e-17  -3.6884145222912012e-14  -1.3136386958608527e-16  -6.1101835212682520e-17  -2.6996229373091463e-15  -4.1052170004784211e-15  -2.0237263937805323e-13  -1.5535261039706985e-13  -7.4333294536604352e-14  -3.9957434328732575e-13  -1.0812798635452890e-18  -2.0752745042483989e-16  -1.5714934743418412e-16  -4.3757965919311176e-16  -7.1201358290005715e-16  -2.7529963153886915e-16  -3.4043462067590628e-17  -2.6754902293562760e-14  -2.3940212467003332e-15  -1.8570041487730778e-17  -7.0811976918077832e-20  -3.4537561153200201e-17  -5.7490633011058274e-14  -4.5489688390505501e-13  -1.0917711250544719e-12  -2.2708318963555940e-14  -9.9302887514183649e-18  -7.7196262701491865e-13  -5.3736626374945740e-15  -1.3309960215983517e-17  -1.7792998672355632e-12  -3.1914776722954376e-17  -1.402559