<?xml version="1.0"?>
<VTKFile type="UnstructuredGrid"  version="0.1"  >
<UnstructuredGrid>
<Piece  NumberOfPoints="6454" NumberOfCells="12638">
<Points>
<DataArray  type="Float64"  NumberOfComponents="3"  format="ascii">0 1.5 0  0 0 0  1.5 0 0  1.5 1.5 0  0.75 0 0  1.5 0.75 0  0.75 1.5 0  0 0.75 0  0.75 0.75 0  0 0.375 0  0.375 0 0  0.375 1.5 0  0 1.125 0  1.5 0.375 0  1.125 0 0  1.5 1.125 0  1.125 1.5 0  1.0625 0.4375 0  0.4375 1.0625 0  0.5625 0.375 0  1.125 0.9375 0  0.3854166666666667 0.6979166666666666 0  0.8049568965517241 1.130387931034483 0  0.28125 0.28125 0  1.21875 1.21875 0  0.2175662878787879 0.9079071969696969 0  0.5625 1.303571428571429 0  0.8290441176470589 0.2738970588235294 0  1.303571428571429 0.5625 0  1.2578125 0.2421875 0  0.2421875 1.2578125 0  1.010416666666667 0.6979166666666666 0  0.2051282051282051 0.5216346153846153 0  0.9856455736880344 1.297298524562678 0  0.7653719096334186 0.5079390451832908 0  0.5481770833333334 0.8606770833333333 0  1.039462506743128 0.2044177382376396 0  0.5828641541157527 0.6178675878563986 0  0.9136904761904763 0.8913690476190476 0  1.3125 1.03125 0  0.6409183354192741 0.1798341677096371 0  1.281668526785714 0.7820870535714286 0  0.1875 0 0  0 0.1875 0  1.5 1.3125 0  1.3125 1.5 0  0.1920012972225798 0.7153938510340165 0  0.4043073677566794 0.4982626425332328 0  1.054735085357395 1.117171638214202 0  0.9375 0 0  0.5625 0 0  0.1875 1.5 0  1.3125 0 0  1.5 0.5625 0  0 0.5625 0  0 0.9375 0  0.5625 1.5 0  1.5 0.1875 0  0 1.3125 0  0.9375 1.5 0  1.5 0.9375 0  0.4468932545895913 0.1802144181965304 0  0.7987562970593343 1.318357727289711 0  0.6320399113235965 1.037924776639822 0  0.2603996068459564 1.080712106845956 0  0.3802379261363636 0.8658558238636362 0  0.3950892857142857 1.331473214285714 0  1.229910714285714 0.4095982142857143 0  1.13745405880473 0.5879074784276126 0  0.7482946595664349 0.917427298948138 0  0.8625423372573767 0.63562835295355 0  0.9012540315035069 0.4192242537897745 0  0.6862861647268528 1.220560482834343 0  0.1224516396650128 1.023194379059598 0  0.125 0.28125 0  0.3042571223994863 0.1326690407998288 0  0.4149781713917952 0.3488154858246145 0  1.359375 1.171875 0  1.3359375 1.3359375 0  1.131854448751258 1.346034816250419 0  0.84375 0.1212988551125148 0  0.1361607142857143 0.1361607142857143 0  0.691638521804216 0.3135510227244841 0  1.131379139752747 0.7872570780892659 0  0.9688853304056201 0.5429870982608649 0  1.134057265332395 0.3075921335077801 0  0.1060987903225806 1.21875 0  0.1387129645862553 1.361715427487219 0  1.393901209677419 0.28125 0  1.361287035413745 0.1382845725127811 0  1.21875 0.1060987903225807 0  0.3601433665263453 1.180455866526345 0  0.5483798738512705 1.157949853770241 0  1.36815753200686 0.4172967302747542 0  1.187531723571597 1.085953361785798 0  1.401785714285714 0.65625 0  0.65625 1.401785714285714 0  0.09804407994526333 0.84375 0  1.402254384056937 0.84375 0  0.28125 1.403363735808893 0  0.925464184745229 1.040966878346683 0  0.9340282126721275 1.174186719212852 0  0.8797957988728348 0.7651628218565172 0  0.9934051945542568 0.3266495984636094 0  0.203125 0.3887553418803418 0  0.3141644363520071 0.590454276924375 0  0 0.46875 0  1.254999444628736 0.9118761107425289 0  1.03125 1.5 0  0.3213923331757561 0.9738827583030052 0  0 0.65625 0  0.1159730568910257 0.609375 0  0.5141588149450601 0.7319349350549398 0  0.5326188770927806 0.499793044891493 0  0.6693710930845284 0.4331752184013763 0  0.7121702197229691 0.6260790780451906 0  1.234475471272342 0.6664938523856012 0  1.098390770327214 1.229886041743451 0  1.013464781580893 0.8203484622190179 0  0.2952629260823795 0.7791860223918741 0  0.4928385416666666 1.401785714285714 0  1.21875 1.5 0  0.6298376402880013 0.7702339567996885 0  0.7848608254810038 0.3893687681820236 0  1.5 1.40625 0  0.4622923140598757 1.236370233688302 0  0.4667991207677928 0.9473088592382519 0  0.2981266305022628 0.4537778927841646 0  0.84375 1.5 0  0.9008085981204581 1.384216576384643 0  0.9616882272291621 0.1155730914816442 0  0.5035849743784865 0.2782669836795798 0  1.009598009491631 0.9590831193486247 0  1.105310675430652 0.1118663280349183 0  0.9288474621627256 0.2227857609567891 0  0.7464170347051563 1.031945227193052 0  0.1125198733612451 0.4565759846003609 0  0.841690222029119 0.9722978654718903 0  0.4672907609250232 0.5973206048957169 0  0.5437787095683263 0.1151781905475824 0  0.7536044163845748 0.1896192335637668 0  0.65625 0 0  0.7049920363331066 0.09569941760663599 0  1.40625 1.078125 0  1.39081588470667 0.9535067694133395 0  1.40625 1.5 0  0.6375104178177308 0.9268732242701165 0  1.003645772935292 1.399729634730415 0  0.1610182417168329 1.124880958145783 0  1.304862449892061 0.3348605478786471 0  0.8685031591756179 0.5174815394805063 0  0.203125 0.2142857142857143 0  0.46875 0 0  1.236252628961601 1.388617949258287 0  0.6528472422531054 0.5380411271234069 0  0.8059365139027533 0.8342920789922936 0  1.210984939277725 0.5129097255512943 0  1.166392387042105 0.1947779113806861 0  1.03125 0 0  1.112027098777656 0.6868999874317245 0  1.4091796875 1.2626953125 0  0.7056210334910562 1.122831931927321 0  0.8445532731910484 1.225781273471752 0  1.401785714285714 0.5192199888552865 0  0.5315992325579575 1.02511262900491 0  1.40625 0 0  1.5 0.09375 0  0.09375 1.5 0  0 1.40625 0  0.09828267889765753 0.7453580504435201 0  0.2137299928547555 0.6195416563936835 0  0.191293077366709 0.8134420362003882 0  0.395652989337951 0.09620832696794322 0  0.3786395303236629 0.2546156254865724 0  1.105082759698279 1.033286095599126 0  0.09375 0 0  0 0.09375 0  1.269539180892899 1.136742542678697 0  0.4693126788152344 0.427799606155492 0  0.6022922682526717 0.2709632077670539 0  0.286537769267488 0.682999829576168 0  0.431696207163009 0.7833932160815852 0  0.6864071374811688 0.8459705255349474 0  0.7528727250742914 1.403406392299215 0  1.40615841291152 0.7499896558614008 0  0.46875 1.5 0  0.28125 1.5 0  1.5 0.84375 0  0.65625 1.5 0  1.5 0.46875 0  1.5 0.65625 0  1.21875 0 0  1.5 0.28125 0  0.84375 0 0  0.28125 0 0  0 0.28125 0  0 0.84375 0  0 1.03125 0  0 1.21875 0  1.5 1.03125 0  1.5 1.21875 0  1.203254432787244 0.991934092179911 0  0.7018429057870754 1.316240552056942 0  0.09232383443139219 0.9359101690420062 0  1.40390625 1.40390625 0  0.2348931380369949 0.995323396873026 0  0.3477301897825538 1.059746137541629 0  0.2397198755521273 1.168072125048833 0  0.21928098141281 0.08974206793316726 0  0.09164332482786468 0.3669827664371529 0  0.4604861261832766 1.147925083553434 0  1.208242546284113 0.8346339808272811 0  1.042270885119771 0.6063462845058686 0  1.320424270852333 0.6988339884515781 0  1.018211345242011 1.19612913087091 0  0.3232572989405801 0.3642302377411452 0  1.219683471513571 0.319825657354259 0  0.9022918689243919 0.3281052118114913 0  1.209245485719643 1.305564994554257 0  1.051234566759267 0.5217852582666107 0  0.3673510104646698 1.413627432420576 0  1.295769937043816 0.4720643981603306 0  0.3072023010063974 1.318381411439101 0  1.141690261405714 0.3964585327199988 0  1.132920129606929 1.151700997493917 0  0.4797323103182937 1.318677829548113 0  0.8975459458359925 1.296170152543854 0  0.464209749529605 0.8633392490855897 0  0.2934839260221656 0.8659218053661386 0  0.5291505402246311 0.1980703646347806 0  1.129554686622487 0.4893579115624633 0  0.6803878781969045 0.7035160631177291 0  1.32373046875 1.25048828125 0  1.32216796875 1.41767578125 0  0.5499851861317793 0.9439128053349233 0  1.022629866909724 1.040850270203209 0  0.5745442708333333 1.417645342938312 0  0.6210905905518814 0.07817000059074161 0  0.8251326424747147 1.051763251304391 0  0.9840195129520318 0.4094589843317338 0  1.335304710332526 0.8922471458140904 0  1.056578658899854 0.8909713350312058 0  0.6311277392046407 1.158870891931624 0  0.08048866130562571 1.097266504752301 0  0.7899471681381695 0.5900550615276262 0  0.787583911300231 0.6744258112570235 0  0.9253568605083915 0.6931779950154204 0  0.6069241236579608 1.236016193461046 0  0.9754544598564333 1.105608345312828 0  0.5891224709431884 0.6993621756793521 0  1.20518939408778 0.7458807514137317 0  0.7661039078070937 1.202429845202379 0  1.160750676252366 1.424456431149488 0  1.07906062607374 1.432028171475168 0  0.3800251736020173 0.4214243130004857 0  0.9386398271504294 0.6156244973145778 0  0.0625 0.234375 0  0.203125 0.2933407738095238 0  1.215434655272782 0.5908176357312523 0  0.3862873976850203 1.253958025454808 0  0.9642783311550196 0.7603191879845486 0  0.07907187269262334 0.5337704210040105 0  1.05323270401054 1.338218592033867 0  0.7809244217906405 0.07297738156489482 0  0.8538188665025647 0.1992768958275427 0  0.9002757663302332 0.06810835486946346 0  0.3896574912364178 0.6177519597715768 0  0.8312147565658268 0.4504658003252042 0  0.6060876899209792 0.4769383705177015 0  0.6973120163099531 0.973865749266754 0  0.2220506518942812 1.34123409472246 0  0.2016535060668421 1.419937676612376 0  1.067204461774397 0.7475876083618238 0  1.126113744622621 0.8622904019182541 0  0.3283697934586307 0.06033102762239553 0  0.3141768357227177 0.2102768223058998 0  0.8836591735735614 1.110539499889141 0  0.9335121559963067 0.9650712587476813 0  0.489881977219376 0.3554687673286838 0  0.1635028372004782 0.9601830799237989 0  0.190064339368102 1.055218085849877 0  0.4693032589410306 0.1089149617768512 0  0.826087350728517 1.388004148744978 0  1.071391321568866 0.357735705332231 0  1.056880377786583 0.2807740346831144 0  1.3359375 1.1015625 0  1.4296875 1.1484375 0  0.3906148988360577 0.9415494491776595 0  0.06145603826933142 1.359375 0  0.06985309644022948 1.2846420920388 0  1.438543961730669 0.140625 0  1.43014690355977 0.2153579079612006 0  0.161811455697184 1.281243264907209 0  1.2989767800824 0.08251937661177217 0  1.282654529021692 0.1634516867188552 0  1.343324227095839 0.2175851507697937 0  0.5747241214300347 1.087143402580354 0  0.1502172474800126 0.06370164366342397 0  0.07677312842259779 0.08704698619211086 0  0.06709364565267519 0.1592134266688963 0  0.1305803571428571 0
[...]
<PointData  Scalars="f_11033-1"> 
<DataArray  type="Float64"  Name="f_11033-1"  format="ascii">1.2458383559915483e-05  1.8547422028339711e-09  1.4176308629530711e-09  1.5017855148789507e-05  5.4805079370187288e-08  1.3392634244139254e-06  1.8530490845552829e-05  1.1243776758444413e-04  7.2403827119553162e-04  1.0879850506529685e-04  4.5820290268096876e-08  1.0424811763225118e-05  6.9692198933792355e-05  2.6440603145438152e-09  2.1054919347342866e-08  2.1606309590788596e-05  6.0956068918195848e-05  1.7597478361123862e-06  1.0493391939588670e-04  1.9832907047393500e-04  2.4737315894476404e-04  4.7315290821917084e-04  3.6912854556226830e-04  9.6452174965397668e-04  1.7976377282117673e-04  1.0598489491946380e-04  4.1838909390331622e-05  7.9453784657345469e-07  1.1385103868009965e-06  1.0024670090162987e-08  4.1668375009338973e-05  1.2152554125871648e-04  3.4780960978358515e-04  2.1155209733994459e-04  1.4816372149821711e-04  4.9229891956482192e-04  3.3496015126257804e-08  8.7779986898198627e-04  5.8702875726982136e-04  8.7214034296812402e-05  7.1085143448568165e-07  2.0322526716980032e-05  5.3700752845608636e-09  8.6482644409207744e-06  2.5131643786837883e-05  4.0254744680177499e-05  1.3271650079796691e-04  1.1157261535699743e-03  3.9913056510638289e-04  3.9958136831032644e-08  6.0710232429025536e-08  1.1690440862140985e-05  7.0260577388233595e-09  8.0741507217423267e-08  1.1457752658302679e-04  9.9591141350342769e-05  1.1646227714996721e-05  1.5466949720675710e-09  3.5649360789105436e-05  4.3578497052368281e-05  8.3028811751243255e-06  1.2200524465220710e-05  1.0389766730833206e-04  2.9126750049463424e-04  7.7667879827820585e-05  1.8313584583962717e-04  2.9319574553003412e-05  1.4971656369159919e-07  1.0185830661412789e-05  7.1048311113791661e-04  2.4115479587220661e-04  9.8538262072263004e-06  1.2696939009752581e-04  8.7543223646672740e-05  1.7048767261453046e-03  1.4520927782114888e-05  6.0599485028164251e-04  7.7805839043788865e-05  7.2110060211515257e-05  1.5151438589373157e-04  5.3489876162275841e-08  1.3477647856866104e-04  1.5269285451871679e-05  9.9477144872134739e-05  2.8729177195031084e-05  5.7179341035728271e-08  5.0662009615242220e-05  2.6175198488773384e-05  3.6138097863968646e-09  4.7567902765985751e-09  1.2267573122532448e-08  5.8981369509877486e-05  9.4123487705330405e-05  2.8419838380723195e-08  2.2928927244174292e-04  1.3742563771139799e-06  2.7106275390658622e-05  1.0800981041857948e-04  1.0531143139570617e-05  1.9644281152842910e-05  5.6565883383619890e-04  3.8862257863903841e-04  4.8097185063170322e-04  3.6559568587780540e-07  1.0903814245512410e-03  5.7281072057800871e-04  1.1382367469074432e-04  8.3072890547961526e-05  5.6902668400998705e-05  1.0700827764702748e-04  1.1443478565010401e-04  1.2449124098582153e-04  7.5904423073819250e-04  7.5662823608546972e-04  1.4414713426891929e-04  5.4693153264703288e-04  1.0641502634668703e-05  2.6780622028635772e-04  3.0208913513159782e-04  1.6889394221363143e-04  1.9816288789832425e-05  5.4524125629209755e-05  8.4469594366987728e-04  2.3243607427875320e-05  2.0976989541802611e-05  4.9989661477721819e-05  1.9893392676426382e-04  1.1380301817181854e-03  2.8006336075127257e-05  9.6497971994137583e-05  3.8845775334455890e-08  7.4705280012056941e-05  4.5727715304224811e-04  2.2343769229734060e-08  8.7134369394579068e-08  4.8531840153221329e-04  2.0025795209768226e-04  6.6145891501380384e-04  9.9478655175623022e-04  2.7969843234652703e-07  1.9467024178975278e-07  5.9183070224108213e-08  6.9654140278735317e-08  4.1060928020665044e-05  2.8447593021131422e-05  2.5610765051700472e-05  5.4728371209688859e-04  1.0838241986247535e-04  6.9360025274401224e-05  1.2866598563482419e-08  5.9848617998749011e-05  1.0855370931987119e-03  5.9338036414032355e-08  9.3103999710436131e-05  4.6696803449388117e-04  7.1475778867975996e-04  1.3795624280691117e-06  1.7389193212256229e-08  3.0237385011334560e-08  4.4668009355019390e-05  5.0344819686578335e-05  2.6823841244569236e-04  2.4498516642869545e-04  1.2144933390941799e-07  1.7953009336293502e-04  2.9819734258295282e-09  1.4602214945709703e-09  1.2276205853353034e-05  2.1679692813355703e-05  1.1372568002642375e-04  1.9536745093861070e-04  1.1566082363188101e-04  8.0322980558759873e-07  1.8794148326663559e-04  3.3724755591582736e-04  2.0634380698038068e-09  5.1808587011194250e-08  1.4216621657666279e-04  7.1070884145290930e-04  1.7615315983639949e-05  2.3264386708571824e-04  3.8203739278653664e-04  7.7166356208335839e-04  4.0073106141783121e-05  3.5896066425565236e-06  1.0711547902313676e-05  1.1279035123905159e-05  3.7778250759466094e-06  1.3421638863753933e-05  1.4360670429458824e-08  3.9929388194868724e-07  1.2516670990939484e-08  1.6028568615206521e-09  4.8779927990779002e-08  2.1974153318693722e-08  8.5964053147684366e-05  1.0788953516206155e-04  8.6793836896190173e-05  5.1434306749417346e-05  1.4652930094146386e-05  2.6282509681150370e-05  1.6901417552686715e-04  6.7343698159401326e-05  9.9861545213516653e-05  3.7466935499891769e-05  9.3011261525279481e-05  8.8631676817657026e-05  6.0220852880958270e-05  3.4526282260156488e-06  2.8995578456571914e-04  7.6507634108298521e-05  7.1081236608934152e-05  3.0588516767563162e-05  5.6624253566296227e-06  3.4644480269888084e-04  1.2408214273236812e-03  2.7697023037207918e-08  1.2871327435245245e-06  1.4573067989315027e-04  1.0305197714990802e-05  1.7668806142039947e-05  2.0843428614230969e-07  3.1009641397122738e-05  3.2146348286872652e-07  2.9780155740207365e-04  3.3299215272778750e-05  1.7795037700651017e-04  2.9887057040347897e-04  1.3159360899887425e-04  5.8473634148936119e-06  2.4606964923243060e-06  8.0549177140678543e-04  9.5555335468879688e-05  5.5351431402015625e-05  3.1623890518052910e-04  4.6217187696178183e-04  1.9114318545482832e-05  7.5701366000437044e-08  5.3248590581461035e-04  2.6678151520742331e-06  3.2614526466839697e-05  3.1581069950130906e-04  1.3841012398591322e-04  7.4817193660229290e-05  2.6986501784736659e-04  4.8922017291867684e-04  2.3530063702627364e-04  7.5343256344004902e-05  4.7381529836817819e-04  9.0388434606764642e-04  2.8676551221976007e-05  2.1648861271233828e-04  9.1569878908201796e-05  9.3555866206228999e-05  1.1078348274784129e-03  9.5199780503250946e-05  6.4754129063448887e-04  1.8495765210799252e-03  4.8344343488319332e-06  4.3626880277737075e-05  2.8553001219251250e-04  1.2261999798302917e-04  1.7183490637174396e-04  5.4805017406004460e-08  1.1092187539752092e-07  4.4075666786508112e-08  7.5669504860857218e-04  3.4742577887572410e-05  4.2287669761610852e-04  5.3795439704897063e-04  2.8223063250868367e-05  1.7973091061264763e-05  1.2410319288290727e-04  1.7785252759654413e-04  2.5679002305338265e-07  1.7905064181207263e-04  4.6925566786450303e-04  5.9153252111225662e-04  3.2517450299285636e-04  9.7292014265203930e-05  8.2136185688895346e-05  6.0924691562655817e-07  6.5260672017084811e-05  3.0983208195752262e-07  7.0807602927158711e-08  8.5577961867789882e-05  4.1274867747340405e-05  1.4409530312567854e-04  2.7571270501411903e-05  3.9923472373613902e-05  2.4035675326323073e-09  2.6817502097075107e-09  3.8745912121131055e-05  7.6390026559102400e-09  8.0486852418328417e-09  5.1747119155519244e-09  1.6587054711701820e-04  2.5320453657389860e-07  -2.3206907008144722e-07  2.0963785984944841e-04  2.4163834740854218e-03  3.3220714820981749e-09  1.7000422990798400e-05  5.7723564490461356e-05  4.6365864652847369e-05  3.0457485779010714e-08  1.8107368536216028e-06  2.6046984998405417e-06  6.2242747637803993e-05  5.4285062602610805e-05  4.3959257552146982e-04  6.9670997265755725e-04  7.9903619416295572e-04  1.1606992088525397e-04  5.1522989597075540e-09  1.7465526132263791e-08  6.1622077077133671e-05  2.5119018668651472e-08  3.8353009045749850e-05  7.5918812950580497e-05  6.6756134056199365e-05  2.0583890053748554e-05  6.5977142541665532e-05  5.3362036853458962e-04  8.3189233120944833e-08  4.6413293835893734e-04  2.1122022371898911e-05  4.2541931856345503e-05  2.6819865719413251e-08  6.9713624004117086e-04  6.6760988708738011e-04  5.4696477303121790e-08  7.6503107049230744e-08  1.9100143707192480e-06  1.1984147299280624e-04  3.0949763431750686e-07  1.2528934547658703e-04  4.9219185343600108e-08  2.7151014836746044e-04  1.5349145824137205e-04  2.1543178585519204e-04  1.8409668144533689e-08  2.1171976998757433e-05  1.1075836259285456e-04  1.0679948658059166e-04  1.0717314949158807e-05  9.2309690966624618e-06  9.5651545978261184e-04  3.5044634890085762e-08  1.9939505066052140e-04  2.5231084459450182e-08  1.7126317497711398e-05  2.9906231255229492e-04  1.3379899891909814e-05  4.4571703497465543e-04  1.1306149663786538e-03  1.5439074190346065e-03  9.3380757122936940e-05  1.1395061716811748e-04  3.7589267558562528e-06  1.1591926379764928e-06  3.0687403848070016e-05  1.7234081684517238e-05  2.2661456696423872e-05  1.5204417427734708e-04  4.0638866031609713e-05  4.3846937314677044e-06  5.9247001242457184e-05  2.5791949663708650e-04  7.8194941238752419e-06  1.1972742655654956e-04  6.1694383147537933e-04  4.1670763007073364e-04  1.0439602669512077e-04  1.1024622908084117e-04  9.2353773020663690e-05  7.5520813432555030e-04  8.2552806690966082e-04  1.1586079896650604e-04  3.2855959444103207e-04  4.7095729252034114e-05  9.3562132404874669e-04  7.2274838134359478e-04  4.5343402573101054e-04  9.3923625362170575e-04  6.5566425328376933e-07  5.4860226252339413e-07  1.7599918129598217e-04  1.0338736497846218e-05  4.6121547709978941e-05  8.1238236756535828e-05  1.6486159834406655e-04  9.4175370637700022e-04  1.1666233043689343e-04  4.5071208948311543e-05  2.6082794116075712e-04  1.1588243316029631e-04  1.3036219115118694e-05  3.6391796445250436e-06  2.9516347876343382e-04  1.3843032999940496e-05  7.1239135943637627e-05  8.1765469016282613e-05  2.1286602222955063e-05  1.0464019935456685e-03  1.8893700518474426e-09  6.9411158238971251e-09  1.3065488307094402e-04  1.0506464890283999e-04  8.9004030128099089e-05  6.2527068053079180e-04  1.9084927898611867e-04  1.3567721262364380e-03  4.3921810878169059e-04  1.0792151207100503e-05  8.2967615876898516e-04  7.7643240603626794e-04  3.5270380625022555e-04  2.0684516292908850e-04  1.6508422507033080e-04  3.1574502361335496e-04  1.4840782395866879e-04  1.7800832771171739e-04  1.5799151723545316e-04  2.3598650678891006e-04  3.9913462556761007e-04  3.3768773891921947e-04  2.4202068791586738e-04  5.5812852246350147e-08  6.8961383316629325e-05  2.8045578947330492e-05  1.3662675880971681e-05  1.2213012900438818e-08  6.1953761661668119e-04  7.6116996948937037e-08  4.9408740044086132e-08  2.6447428767795693e-04  3.7059645802320888e-04  1.4885955377540134e-04  1.0645179772841305e-07  9.3176174851388003e-09  1.4749529962098201e-04  3.7665991951399829e-08  8.4959509993653778e-05  6.8008530494424551e-04  2.4333196082443033e-08  3.1626170446488917e-04  3.6089668882442828e-05  1.0569726256297904e-03  5.3266820120797425e-04  8.4824933151454636e-07  4.6721195463999202e-09  5.8523323262332574e-05  1.1581988846056763e-04  1.1499872250063170e-04  5.0068554891030133e-05  2.0333980973604549e-09  2.7158429657154609e-07  1.1947662451900663e-05  6.8343844893441294e-05  9.1255307654367133e-04  1.2187533771716849e-04  1.5915872024651135e-06  1.1603442649296358e-04  9.5722350995296884e-09  1.0470869982176547e-08  1.2745343693039722e-04  3.7556920495656964e-04  6.3843756634756677e-04  4.2189986838925183e-04  2.3458772966660874e-07  3.7218976702919309e-05  4.9855656390106022e-04  1.6636513018856147e-08  2.7128286149861058e-05  1.2211762469629842e-04  5.4178343641818768e-07  2.7375053904599751e-07  8.6002204049886049e-08  1.6272757957542981e-06  1.1331780722804223e-05  7.9999972173330530e-05  1.2050757593694316e-04  2.3065477475767963e-05  2.7470948251709593e-04  5.2225618523201165e-05  2.0720477354893704e-07  5.6902095880969337e-04  6.5149607240787266e-04  4.1394007304451592e-04  5.3089570463321232e-04  5.9186903389655838e-04  6.3240669295776437e-04  1.1143887433708300e-04  3.4637072989424424e-08  1.7247358328196595e-05  4.4271842377210253e-05  1.9818720965516151e-04  6.6242076153401178e-05  1.3328341752294644e-04  1.0303034844874047e-07  1.0685961930904896e-04  1.5464753443605052e-08  1.8006359716885231e-09  2.5374559312083830e-09  1.7005950051731957e-05  7.6494955208844847e-08  7.2751785513106961e-05  7.8976159649927499e-05  1.4742751967017354e-05  7.6364619852924904e-05  3.0513965551242974e-06  6.5315193210117861e-04  6.0653474315708637e-04  1.3163935007674950e-05  1.3639385438298302e-04  3.0002573195233082e-04  2.1157353708495050e-05  8.0142000801898118e-05  1.4523416578115819e-05  1.4246756645019596e-05  6.0296703676583258e-08  1.9266409866059702e-04  1.5970274029715866e-06  6.7159099667146828e-08  5.1482673627165841e-05  2.3878735579080002e-05  2.5943350501334537e-04  5.1295850828741550e-05  1.2353369197578982e-04  3.7627783725791032e-08  5.6445079080404975e-08  1.2194841517971988e-07  5.3937000111852756e-05  7.6500880564616227e-04  4.3458600482536937e-04  5.9999091515101520e-05  4.9525016947559964e-09  1.7188603388044658e-06  4.1451500963986619e-06  3.9749113059905713e-07  2.5800230953998437e-04  2.9911764855324121e-05  5.9769036636307916e-05  2.4903660409028264e-05  1.3991193938223584e-09  4.2082578033420576e-09  9.6660337418188981e-04  1.2370414845352183e-08  1.4138087681603019e-04  1.8143369681464423e-04  4.7672548931731450e-05  1.5297756475500415e-04  7.8502884621642216e-05  1.8696544158368629e-04  3.4080685306379243e-05  6.9276391432652302e-05  2.7160224382751201e-05  3.7642692763457923e-09  3.4212951047791427e-05  3.1366731753034100e-05  1.6655497173107339e-04  1.8611066588624902e-05  2.3941102219189250e-04  5.1607009100682229e-09  2.4603712923599945e-04  2.3092426650615418e-03  2.1490256347492985e-04  2.0213908038917318e-09  5.6157567735106199e-05  3.6692831391541296e-04  1.1432639601009611e-04  3.7623380179326655e-05  6.4119445790827558e-09  2.1790631154575028e-05  7.5397293530929162e-07  7.4020779763836822e-04  2.8821944534042716e-05  1.4173609317188689e-05  4.0882299801451411e-05  6.6337342582514384e-05  4.7200035442344045e-04  1.3283046558394543e-04  3.6406061702174447e-05  2.2867658741659565e-04  5.9142313900999480e-06  8.1717088912491407e-08  4.1203499253476757e-04  2.8584806827298991e-04  1.7280011814258472e-04  1.3144657419773959e-07  2.4521811201426874e-05  7.0447469864323058e-04  1.5559751987677745e-04  5.1523969631080168e-04  1.2664863616902917e-04  1.4631921929428167e-05  1.8674927669247762e-05  6.2963338487980136e-06  9.0593177747697750e-05  4.3755280296517391e-05  1.1172599157640080e-04  1.4566802887929556e-07  2.8773169954050299e-06  4.8731100127154120e-06  6.0340420421990206e-07  1.9039306085191960e-07  1.1241161736260387e-04  5.0198424403477787e-04  4.0473747044327495e-04  2.8634814908341150e-06  6.0423872672556122e-08  1.0240650705209773e-04  5.6089777470960472e-04  7.8290147202881663e-05  5.4512685759889293e-05  6.1667945913184183e-09  6.9068082130969719e-05  1.8448273308663168e-04  5.4947207494905929e-04  1.1073533094107991e-04  2.9021624220447738e-04  1.6945618448894667e-04  1.5908596051502643e-04  5.2027468360750012e-08  5.0663251485405708e-05  4.3966950596496049e-05  1.5691874917600373e-09  9.9669562449986919e-05  1.0064268052417918e-03  7.8075287022335432e-04  7.1466581733172592e-04  3.1618295532998616e-04  1.4148348463649009e-04  2.1059525800630069e-05  1.1978964790629991e-04  5.9800515383227425e-05  2.4578149092314220e-05  9.0384528809537492e-08  6.2370422985382016e-09  1.3010794149107521e-08  1.5363968887817271e-07  6.2177930762483745e-06  1.5179990400024115e-03  8.0001561549736353e-04  6.7717103829068167e-04  2.6988439245554067e-06  2.2383472315319836e-05  1.9675450844960162e-04  3.0083777347394217e-08  5.4465761450143936e-04  1.2850902673723275e-04  6.3456134313974897e-06  2.1158161257599957e-06  4.1878349267545733e-05  2.4893904615122519e-05  1.1281054277792691e-04  4.5748126535193493e-05  1.2286869340096948e-05  5.7029094999744912e-08  3.2519483028518813e-05  4.8261365344396877e-05  1.5726140222035512e-05  1.2285055883603114e-05  2.3277208349845735e-05  9.3688880546922298e-05  1.0437061711648990e-05  1.1525501928559529e-05  2.5604640884125997e-08  3.5266315961965237e-08  7.7712340661406176e-07  2.3112486229336586e-06  5.6901449436158684e-06  1.1462834720409198e-04  1.1375419123337275e-04  1.1054139834523264e-04  1.1295919897728886e-04  5.9889513963417282e-08  6.0897847171642628e-05  1.6513700778902731e-08  1.2051742178527603e-05  3.7262149250575511e-09  1.5513812568151008e-09  2.9026316625189561e-05  3.4823163004401146e-08  4.4788519549250184e-08  7.7160340763763489e-07  4.6923260830426503e-05  5.9291172117177409e-05  1.5867210877949491e-05  2.3358977630688042e-05  1.7467877116435259e-05  1.8718677190384937e-05  1.0401913504916527e-04  3.3938624812494887e-05  1.0616427943739650e-04  1.0853795461228756e-05  1.8807303992500485e-05  2.6170052938825509e-05  6.9265119937001040e-05  8.9411192861858701e-07  2.5071078709581779e-07  4.2413871025102245e-06  2.2739089454515871e-04  1.2786493393357131e-03  9.0156942378598532e-04  1.0220622470422909e-03  6.5734596489183667e-05  8.7425366482597771e-08  1.3550615539836413e-04  5.0332662536095124e-05  1.6412822797424857e-04  1.0439391064582257e-04  9.9826292470076928e-05  9.4481842888329627e-05  1.1135614732159103e-04  3.0296408925740801e-09  2.1308141187742418e-04  6.5332591538092130e-04  2.6012309111648972e-06  4.6558709548733657e-04  1.0337923255668192e-05  1.2130365851378477e-03  6.0793101741074616e-04  6.4977908616291867e-06  7.9691888491417991e-05  1.0150714176621490e-04  9.2616074970836114e-06  8.6836810965801119e-04  2.4663469994822272e-04  8.9949776852525642e-05  1.3961517395795356e-04  7.4157139049036421e-07  5.4674150633079468e-04  8.6409684436189016e-04  9.0036229042643641e-04  2.5921808454647113e-09  2.0731970254935609e-08  9.5632220346833788e-07  7.9419395326885687e-07  8.0533251465428519e-04  5.3601330857977365e-07  7.0675192322538246e-08  6.2452627688710298e-05  1.9379317589765706e-04  2.9004099705846209e-05  5.7048596350899917e-04  5.0082477002262924e-05  2.9298085795930324e-04  2.2066867836281726e-04  1.0582957115954041e-04  5.9049951702705402e-05  7.6081550332938690e-05  3.5745328702532367e-05  1.0803718151434640e-04  1.0418936712940198e-04  8.0171040621895471e-05  9.1700554874733745e-05  6.3978862358352007e-05  6.9231375491092838e-05  2.9206074306124463e-05  4.6303297103935661e-04  3.8628874882991668e-04  9.5664595911708285e-04  6.5523960981082440e-07  1.5674159856068233e-07  4.2892787517470209e-04  7.0633485613749814e-05  4.5379353168983411e-05  8.5811632986398644e-05  9.6889612570282205e-05  9.8727998433046762e-05  7.2111569407008616e-09  2.4985948262736673e-05  2.8987649164886633e-05  3.8692331826983922e-05  3.1498469745527479e-05  1.1812905382345666e-04  4.8476768108845662e-04  9.6926526864405334e-05  3.8555815551185069e-05  1.3657363466619123e-04  8.7341226589220805e-05  9.0191284197073160e-05  4.8543226184036681e-08  1.1771478091090328e-04  3.5350208397407867e-04  1.3623472241633897e-08  5.9304384356558376e-08  1.1804059290953922e-04  8.4443160141524809e-04  1.9514861499634764e-08  4.0542380624317750e-04  1.5691180970928465e-04  1.6086595633828710e-04  3.4636858245115199e-05  1.4301176292718174e-07  2.7530443246160674e-05  1.4405941584776594e-05  1.1893732333578793e-04  1.2585332187247877e-04  3.3130734879557595e-04  1.4063322154852042e-04  3.0944491413490110e-04  3.8794353572411781e-04  5.9868680642858848e-04  3.7637926589797676e-09  1.5028899326343962e-04  1.3092272654354817e-05  2.3064849305081935e-05  9.3279377903587278e-09  4.8911946683861967e-08  1.3818062465085937e-05  2.9984153074074774e-07  3.8489417052780822e-09  1.2311431879585724e-03  7.2517412620173567e-05  3.9315681804443569e-08  4.9846078780344536e-05  3.1252879747088626e-06  1.0139883956915578e-08  3.3443475732604339e-04  2.3964922193855150e-05  3.1102025711414505e-05  3.5711124236095238e-05  2.2285085199229986e-05  3.2468719082271472e-04  3.2562047603117015e-04  6.3086417478996741e-04  2.718194