<?xml version="1.0"?>
<VTKFile type="UnstructuredGrid"  version="0.1"  >
<UnstructuredGrid>
<Piece  NumberOfPoints="6486" NumberOfCells="12696">
<Points>
<DataArray  type="Float64"  NumberOfComponents="3"  format="ascii">0 5 0  0 0 0  5 0 0  5 5 0  2.5 0 0  5 2.5 0  2.5 5 0  0 2.5 0  2.5 2.5 0  0 1.25 0  1.25 0 0  1.25 5 0  0 3.75 0  5 1.25 0  3.75 0 0  5 3.75 0  3.75 5 0  3.541666666666667 1.458333333333333 0  1.458333333333333 3.541666666666667 0  1.875 1.25 0  3.75 3.125 0  1.284722222222222 2.326388888888889 0  2.683189655172414 3.767959770114943 0  0.9375 0.9375 0  4.0625 4.0625 0  0.7252209595959597 3.026357323232324 0  2.763480392156863 0.9129901960784315 0  1.875 4.345238095238095 0  4.345238095238095 1.875 0  4.192708333333333 0.8072916666666664 0  0.8072916666666665 4.192708333333334 0  3.368055555555555 2.326388888888889 0  0.6837606837606839 1.738782051282051 0  3.285485245626782 4.324328415208927 0  2.551239698778062 1.693130150610969 0  1.827256944444444 2.868923611111111 0  3.464875022477093 0.6813924607921316 0  1.942880513719175 2.059558626187995 0  3.04563492063492 2.971230158730159 0  4.375 3.4375 0  2.13639445139758 0.5994472256987903 0  4.272228422619047 2.606956845238095 0  0.625 0 0  0 0.625 0  5 4.375 0  4.375 5 0  0.6400043240752655 2.384646170113389 0  1.347691225855598 1.660875475110776 0  3.515783617857982 3.723905460714006 0  3.125 0 0  1.875 0 0  0.625 5 0  4.375 0 0  5 1.875 0  0 1.875 0  0 3.125 0  1.875 5 0  5 0.625 0  0 4.375 0  3.125 5 0  5 3.125 0  1.489644181965304 0.6007147273217681 0  2.054597701149425 3.742302955665024 0  2.662520990197781 4.39452575763237 0  2.415835363784578 3.165530021913244 0  0.8679986894865213 3.602373689486522 0  1.267459753787878 2.886186079545454 0  4.099702380952381 1.365327380952381 0  1.316964285714286 4.438244047619047 0  3.7915135293491 1.959691594758709 0  2.875141124191255 2.118761176511833 0  3.00418010501169 1.397414179299248 0  0.4081721322167092 3.410647930198662 0  0.4166666666666666 0.9375 0  1.014190407998288 0.4422301359994293 0  1.383260571305984 1.162718286082048 0  4.53125 3.90625 0  4.453125 4.453125 0  3.772848162504192 4.48678272083473 0  2.8125 0.404329517041716 0  0.4538690476190476 0.4538690476190476 0  2.305461739347387 1.04517007574828 0  3.771263799175824 2.624190260297553 0  3.229617768018734 1.809956994202883 0  3.780190884441317 1.025307111692601 0  4.646337365591398 0.9375 0  4.537623451379149 0.4609485750426037 0  1.200477888421151 3.934852888421152 0  0.3536626344086022 4.0625 0  0.4623765486208503 4.539051424957397 0  4.0625 0.353662634408602 0  4.560525106689535 1.390989100915847 0  3.958439078571988 3.619844539285994 0  4.672619047619047 2.1875 0  2.1875 4.672619047619047 0  1.862808494877602 3.325947624431087 0  0.3268135998175443 2.8125 0  4.674181280189791 2.8125 0  2.283233994935276 4.138623547175983 0  0.9375 4.677879119362977 0  3.08488061581743 3.469889594488945 0  3.113427375573758 3.913955730709506 0  1.652847799068813 3.950848935641292 0  2.932652662909449 2.550542739521724 0  3.311350648514189 1.088831994878698 0  0.6770833333333333 1.295851139601139 0  0 1.5625 0  1.047214787840024 1.96818092308125 0  4.183331482095785 3.03958703580843 0  3.4375 5 0  1.071307777252521 3.246275861010018 0  0 2.1875 0  0.386576856303419 2.03125 0  1.713862716483534 2.439783116849799 0  1.775396256975935 1.665976816304977 0  2.231236976948428 1.443917394671254 0  2.373900732409897 2.086930260150635 0  4.114918237574474 2.221646174618671 0  3.661302567757379 4.099620139144836 0  3.378215938602977 2.734494874063393 0  0.9842097536079312 2.597286741306247 0  1.642795138888889 4.672619047619047 0  4.0625 5 0  2.099458800960004 2.567446522665629 0  2.616202751603346 1.297895893940078 0  5 4.6875 0  0.9937554350075428 1.512592975947215 0  2.8125 5 0  3.002695327068194 4.614055254615477 0  3.205627424097207 0.3852436382721472 0  1.678616581261621 0.927556612265266 0  3.365326698305438 3.196943731162083 0  1.554834936170314 3.120009882655813 0  3.108408340729323 0.7797187795784133 0  3.684368918102174 0.3728877601163941 0  2.716214835303553 3.39276351922003 0  2.37718583984784 3.551973401560441 0  0.3750662445374837 1.52191994866787 0  2.679073487930202 2.844160731602957 0  1.557635869750078 1.991068682985722 0  1.812595698561088 0.3839273018252746 0  2.512014721281916 0.6320641118792227 0  2.1875 0 0  2.349973454443689 0.3189980586887866 0  4.6875 3.59375 0  4.636052949022233 3.178355898044465 0  4.6875 5 0  3.345485909784306 4.665765449101383 0  0.536727472389443 3.749603193819277 0  4.349541499640203 1.116201826262156 0  2.886559045931982 1.774013674579691 0  0.6770833333333334 0.7142857142857143 0  1.5625 0 0  4.120842096538671 4.628726497527622 0  2.176157474177018 1.793470423744689 0  2.175650736889416 2.909863021769539 0  4.036616464259081 1.709699085170981 0  3.887974623473683 0.6492597046022868 0  3.4375 0 0  3.70675699592552 2.289666624772415 0  4.697265625 4.208984375 0  2.815177577303495 4.085937578239174 0  4.672619047619047 1.730733296184288 0  4.6875 0 0  5 0.3125 0  0.3125 5 0  0 4.6875 0  0.3276089296588581 2.484526834811734 0  0.712433309515852 2.065138854645612 0  0.6376435912223634 2.711473454001295 0  1.184991292170422 0.7222504400947201 0  1.31884329779317 0.3206944232264773 0  3.683609198994263 3.44428698533042 0  0.3125 0 0  0 0.3125 0  4.231797269642997 3.789141808928991 0  1.564375596050781 1.425998687184973 0  2.007640894175573 0.9032106925568466 0  0.955125897558294 2.276666098587227 0  1.43898735721003 2.611310720271951 0  1.954491523717513 4.040700257877075 0  1.752947649777421 3.652439445419346 0  2.509575750247638 4.678021307664052 0  4.687194709705067 2.499965519538002 0  1.5625 5 0  0.9375 5 0  5 2.8125 0  2.1875 5 0  5 1.5625 0  5 2.1875 0  4.0625 0 0  5 0.9375 0  2.8125 0 0  0.9375 0 0  0 0.9375 0  0 2.8125 0  0 3.4375 0  0 4.0625 0  5 3.4375 0  5 4.0625 0  4.010848109290813 3.306446973933037 0  0.3077461147713075 3.119700563473354 0  4.6796875 4.6796875 0  2.333079012424948 3.845757959077508 0  0.7829771267899832 3.317744656243421 0  1.159100632608513 3.532487125138763 0  0.799066251840424 3.893573750162776 0  1.57326499580282 4.255438189102632 0  0.7309366047093668 0.2991402264438908 0  0.3054777494262156 1.223275888123843 0  4.027475154280377 2.78211326942427 0  2.35270874745988 4.426658168476266 0  3.474236283732569 2.021154281686229 0  4.401414236174444 2.329446628171927 0  3.39403781747337 3.987097102903034 0  1.077524329801934 1.214100792470484 0  4.065611571711903 1.066085524514197 0  2.165399002716117 3.335637450367864 0  3.007639563081306 1.093684039371638 0  4.030818285732145 4.351883315180857 0  3.504115222530889 1.739284194222036 0  1.224503368215566 4.712091441401919 0  3.805634204685714 1.321528442399996 0  4.319233123479386 1.573547993867769 0  1.024007670021325 4.394604704797005 0  3.776400432023095 3.839003324979723 0  2.991819819453308 4.320567175146181 0  0.9782797534072181 2.886406017887129 0  1.763835134082104 0.6602345487826022 0  3.765182288741625 1.631193038541544 0  2.267959593989681 2.345053543725764 0  4.412434895833333 4.168294270833333 0  4.4072265625 4.7255859375 0  2.791493971314009 3.11210833271929 0  3.408766223032414 3.469500900677365 0  1.915147569444444 4.725484476461039 0  2.070301968506271 0.2605666686358055 0  2.767932250651506 1.530295992695836 0  3.280065043173439 1.364863281105779 0  4.45101570110842 2.974157152713635 0  3.521928862999512 2.96990445010402 0  2.552921961347576 4.008414007169315 0  0.2682955376854191 3.657555015841003 0  3.084522868361304 2.310593316718068 0  2.669255823227708 1.939379494498064 0  2.615884629473921 2.238841231570381 0  1.405652091971449 0.8877813821442277 0  3.25151486618811 3.68536115104276 0  1.963741569810629 2.331207252264507 0  4.017297980292599 2.486269171379106 0  3.869168920841219 4.748188103831625 0  3.596868753579134 4.77342723825056 0  2.41262958240343 2.764128584995838 0  1.266750578673391 1.404747710001619 0  1.559243962241121 2.85146506328516 0  3.128799423834764 2.052081657715259 0  0.6770833333333333 0.9778025793650794 0  0.2083333333333333 0.78125 0  1.978224492765132 3.087074731032578 0  4.051448850909273 1.969392119104174 0  1.320577095006813 4.172234780971559 0  3.214261103850064 2.534397293281829 0  0.2635729089754111 1.779234736680035 0  3.510775680035133 4.460728640112889 0  2.603081405968802 0.2432579385496493 0  2.866341315154884 0.6662105505481998 0  3.000919221100777 0.2270278495648781 0  1.298858304121393 2.05917319923859 0  2.020292299736597 1.589794568392338 0  0.7401688396476035 4.470780315741533 0  0.6721783535561408 4.733125588707921 0  3.753712482075402 2.874301339727514 0  3.557348205914658 2.491958694539413 0  1.094565978195436 0.2011034254079851 0  0.9338148378011396 0.6833568465908735 0  2.945530578578538 3.701798332963805 0  3.111707186654356 3.216904195825605 0  1.341791111822685 3.293123262233967 0  1.632939924064587 1.184895891095613 0  0.6335477978936732 3.517393619499591 0  0.5576014611130192 3.210998966942492 0  1.564344196470102 0.3630498725895039 0  2.75362450242839 4.626680495816594 0  3.571304405229554 1.192452351107437 0  3.522934592621944 0.9359134489437148 0  4.453125 3.671875 0  4.765625 3.828125 0  1.055906321410838 4.14310472322957 0  4.795146539102229 0.46875 0  4.767156345199235 0.7178596932040019 0  0.2048534608977711 4.53125 0  0.232843654800765 4.282140306795998 0  0.5393715189906129 4.270810883024032 0  4.329922600274667 0.2750645887059072 0  4.275515096738972 0.5448389557295173 0  4.477747423652795 0.7252838358993123 0  0.2002829820452772 0.46875 0  0.4352678571428572 0.6956845238095237 0  0.5007241582667088 0.2123388122114133 0  4.672890923830735 0.2500902110494848 0  0.4308009280819452 4.783624996516437 0  2.104871305393774 4.438653689007242 0  0.2274454167838428 0.2274454167838428 0  3.446466574593436 0.4359605369011901 0  2.12354112127588 1.217588426759619 0  2.309175236825235 0.7888355970690434 0  2.556178570281936 1.054299163237582 0  0.578683248637
[...]
<PointData  Scalars="f_800-1"> 
<DataArray  type="Float64"  Name="f_800-1"  format="ascii">4.9711760193884499e-02  6.8964026885701912e-02  4.8983824621144617e-02  4.8772165293815631e-02  5.9035789575349377e-02  4.8963971247063059e-02  4.9397866895070620e-02  5.9404541235634080e-02  5.9027024656069439e-02  6.4429674282184102e-02  6.4092196953722369e-02  4.9282990505179931e-02  5.4324161962290694e-02  4.8964513779261136e-02  5.3991614901644502e-02  4.8993942363947017e-02  4.9340325338257177e-02  5.4811849695405583e-02  5.5197203492147670e-02  6.1570580774264833e-02  5.4007631502244323e-02  6.0075614915576232e-02  5.4273631568329900e-02  6.5446101663667114e-02  5.2577904470946610e-02  5.7273696341310555e-02  5.7953658476600979e-02  5.2015792214576376e-02  5.1586295051835804e-02  5.2173832081915596e-02  5.2702455115791531e-02  5.5556291255045881e-02  6.2448037958380040e-02  5.2047109780705550e-02  5.8840978921597654e-02  5.7890005348223174e-02  5.5112537431008850e-02  6.1256970350179095e-02  5.6819316751560198e-02  5.1499158406092344e-02  6.0501041021652761e-02  5.1884860432461481e-02  6.6617191607823215e-02  6.6941871832317701e-02  4.9013735745630879e-02  4.9458422671801672e-02  5.9870071256279127e-02  6.3186227448983390e-02  5.4471786339002126e-02  5.6470505132856674e-02  6.1541513366869034e-02  4.9591337295985520e-02  5.1467211597376598e-02  4.8937857932623785e-02  6.1911347357055932e-02  5.6863210438295002e-02  4.9369780497364936e-02  4.8973912904496555e-02  5.2146187659733501e-02  4.9370804632584628e-02  4.8968263082020347e-02  6.3122306659973468e-02  5.4405218174961550e-02  5.1764315574248723e-02  5.6769508278678361e-02  5.4941569528827172e-02  5.7863050059639279e-02  5.2555498401849879e-02  5.1604577853554184e-02  5.3827440651147217e-02  5.7535995829830267e-02  5.6999159475114330e-02  5.5713631051409751e-02  6.5684915660268406e-02  6.5046621285845735e-02  6.3514185529017803e-02  5.0879626673848578e-02  5.0973138452533824e-02  5.1468934227218190e-02  5.7763829705802149e-02  6.7128180918753139e-02  5.9839538831381205e-02  5.3937024014795033e-02  5.6106538295572904e-02  5.3847074416172730e-02  5.0364864899694078e-02  5.0814302302192665e-02  5.3601512347038659e-02  5.3061711145541306e-02  5.1145496628616227e-02  5.2717038609030271e-02  5.0684416013020699e-02  5.3155147801664485e-02  5.0261946244640615e-02  5.0693409189850561e-02  5.6065868780432210e-02  5.8139784099397303e-02  5.0255674523215728e-02  5.2804727477970478e-02  5.0588248749054557e-02  5.5669208547174456e-02  5.3753083653275996e-02  5.3554448556459008e-02  5.7296115235016959e-02  5.5737292850798988e-02  6.4241531699436652e-02  6.3171997908245930e-02  6.1519376759388220e-02  5.2281229190294577e-02  4.9356998930294639e-02  5.6380975589276940e-02  6.0652844117675866e-02  6.1333558138619793e-02  5.9657883543055977e-02  6.1993836477449347e-02  6.0131323478667224e-02  5.9557292231203311e-02  5.2505266659586068e-02  5.3093848367562604e-02  5.5508788523159339e-02  5.9000007790589649e-02  5.0624424104609878e-02  4.9364387486353425e-02  5.9361255690468219e-02  5.8591658883865659e-02  4.8968603939282748e-02  6.3494607332494832e-02  4.9389187623967191e-02  5.0903356174476125e-02  5.6156623836351081e-02  6.2362458673727257e-02  5.5555970735191335e-02  5.6909929795094558e-02  5.6565470968069992e-02  5.4214849978331758e-02  5.5892301770282968e-02  5.5142198652707669e-02  6.3324112190997317e-02  5.8049645013568116e-02  6.1771272663598178e-02  6.1808335140607545e-02  5.8966533470233930e-02  6.0276583036563261e-02  5.9612273794207513e-02  5.0235892345545700e-02  5.0423389618760590e-02  4.9355867641787191e-02  5.0649849564590968e-02  5.4321117505753157e-02  5.1535807440280988e-02  5.7509562538976995e-02  6.6566833238544870e-02  6.2822258488960531e-02  5.0937843343982256e-02  6.0347941013938200e-02  5.7796363801665605e-02  5.2811954015932666e-02  5.3394042676789440e-02  5.5227995964503118e-02  5.4177087695886021e-02  5.0188269570374318e-02  5.3011952274703053e-02  5.0240548074305426e-02  5.0209796289046288e-02  4.8983356344908149e-02  4.9753829592502713e-02  5.0881826203835932e-02  5.9454308765233929e-02  6.1141260958439324e-02  5.8538605306029515e-02  6.4357154314045900e-02  6.3812642470703992e-02  5.4263876645806300e-02  6.7881193163097889e-02  6.8166125190827348e-02  5.2055886379622295e-02  6.2817275139203904e-02  6.1035250917625058e-02  6.0284070160706853e-02  5.8942121063928647e-02  5.3211797750992058e-02  5.4757748074057380e-02  5.0652204054733606e-02  5.0200142768884480e-02  4.9406187235679903e-02  4.9356957438320775e-02  4.8972907192452148e-02  4.9364899741745023e-02  4.8943635399796140e-02  4.8946846933946651e-02  5.2727822769026926e-02  4.8985832566997678e-02  5.7742955096421480e-02  6.5350590381184820e-02  6.5681000954067412e-02  5.8125676991559731e-02  5.5592940254550312e-02  5.2964460910911768e-02  4.8980858386653503e-02  4.9000981538610849e-02  5.2958830958286990e-02  5.6886264246837480e-02  5.0047710637483957e-02  5.3982952866609112e-02  5.6099169025127904e-02  5.5239541675566967e-02  5.3782644296640536e-02  5.2344832620954719e-02  6.6189280327094036e-02  6.4526991164226902e-02  5.2896795488984745e-02  5.1689855594488972e-02  5.5115590794471862e-02  5.1344211813135629e-02  5.3529967679950212e-02  6.4947251439345002e-02  5.2685465345956792e-02  5.6013522519317106e-02  5.6972880169899730e-02  5.2004896150000209e-02  5.4976324640885539e-02  5.0558138052976202e-02  5.3752920604912949e-02  5.1670743577779253e-02  5.1855883647454679e-02  5.3678326026422869e-02  5.2044834502972162e-02  5.7841127975780206e-02  6.2019292467274743e-02  5.3908992677590278e-02  5.9933479822738805e-02  5.1303592313836986e-02  5.0461978272131211e-02  5.7129165983091743e-02  5.5207352139177289e-02  5.0436274061598625e-02  6.0758087051440722e-02  5.7971545147986074e-02  5.5875659942096111e-02  5.1169982163768724e-02  5.4922016244118750e-02  5.3313441938992831e-02  5.4704367498731123e-02  5.6694552209058106e-02  5.8365619599336310e-02  5.8581130588441568e-02  6.3463874042462703e-02  5.4789773263396631e-02  6.0384153162909744e-02  5.2919245742729860e-02  5.0365554574691267e-02  5.0227550764479219e-02  5.8587943177070043e-02  6.4119286976120043e-02  5.7973454157942347e-02  5.6522911819937557e-02  6.6164913163025529e-02  6.6299879905105052e-02  5.7013580495844242e-02  5.2763307221986161e-02  5.2657735564449172e-02  5.6168297841833331e-02  6.2293573262098882e-02  5.1505790039939187e-02  5.8610876426983372e-02  5.7532505446326460e-02  5.6985198679493414e-02  6.1159164537323299e-02  6.0973765559828412e-02  5.1417402997811085e-02  5.0370682385189137e-02  5.3996331316843726e-02  5.4800287600942452e-02  6.4718561837580429e-02  6.5327153338028646e-02  5.4615926511266316e-02  5.6372350733380532e-02  5.6204897023102093e-02  6.2539608633963448e-02  5.5296340572542679e-02  5.6526166192669980e-02  6.2825169560848146e-02  5.0841781885917821e-02  5.4693525965544505e-02  5.4898124284103358e-02  5.1180771455428001e-02  4.9929211388226175e-02  5.2783038606521920e-02  4.9766861162176178e-02  4.9899828419121002e-02  5.1453921603093450e-02  5.2156964370348231e-02  5.2227192718553112e-02  5.1651957194764564e-02  5.1859008236773863e-02  5.1045589922335682e-02  6.8903248763296565e-02  6.7629202287627074e-02  6.7116496698236564e-02  5.0269949761045096e-02  5.0432123841131681e-02  5.1626048749932700e-02  6.7909430090311071e-02  5.5172749352924454e-02  6.0565926726321218e-02  5.9813522189590303e-02  5.8825120884654310e-02  5.3464193206538051e-02  5.5884722318125829e-02  6.0410028184876396e-02  5.3783879284695156e-02  5.3517156139039790e-02  4.9965382341312023e-02  4.9859182295415930e-02  4.9904983992521960e-02  6.4338811990206801e-02  5.4198082947834417e-02  5.4187168109595153e-02  5.6730392819353929e-02  5.1545697234632717e-02  5.6687571791684731e-02  5.4222846705450203e-02  6.2395091687778639e-02  5.5961703558059218e-02  5.5225810486218573e-02  5.1592941897845745e-02  6.2189033635818715e-02  5.1154018470600041e-02  5.2386836410999650e-02  6.0324402111499191e-02  4.9854591361906321e-02  6.3800897760475123e-02  5.9184600499678525e-02  5.2399867675721620e-02  5.2938146260787987e-02  5.3055938805178483e-02  5.0033288489163094e-02  5.7741947268343231e-02  5.8772328422012445e-02  4.9598578940768828e-02  5.0940186024917344e-02  6.1172753483089974e-02  5.5845292639692228e-02  5.5720312934408107e-02  5.2426652300863685e-02  5.4592913472357889e-02  4.9608323337406404e-02  5.2910771461330504e-02  5.7745353983513915e-02  5.0216448950156999e-02  5.8881208996614379e-02  6.3337016996201909e-02  6.5453001372296121e-02  6.4868241810812591e-02  5.5737497729738697e-02  5.6234556612093888e-02  6.0021542444086563e-02  4.9597326502408411e-02  4.9601501765912319e-02  4.9983326546579818e-02  5.0449909857807160e-02  4.9439927466850164e-02  5.3132867396488641e-02  5.1883671601763957e-02  5.7888041554747346e-02  5.0052964077071001e-02  5.6745967022512812e-02  5.2639814305714350e-02  5.2832585505968650e-02  5.3947285833806161e-02  5.8217233882739999e-02  5.7544495223740680e-02  6.5950043752348766e-02  5.1663223231514038e-02  5.6271074510078442e-02  6.0550562912501195e-02  5.9469106515461626e-02  4.9994521521351282e-02  6.2069706828133918e-02  6.1931613550964576e-02  6.2904110763145574e-02  6.1303490044229851e-02  5.3184003132302357e-02  5.8747500465640902e-02  5.5161900322870001e-02  5.6871840054585510e-02  5.3613154299842078e-02  5.2444755268947318e-02  5.0725473450000794e-02  5.7074408141864416e-02  5.8963876616904880e-02  6.4221186839933359e-02  5.1541220945844200e-02  6.2093790864300960e-02  6.2082294483747434e-02  5.1646950035185650e-02  5.7457399737187762e-02  5.5889502258201454e-02  5.0620496211864832e-02  5.8370676732520464e-02  6.5343246550042727e-02  6.1510820768325605e-02  5.3327289798363896e-02  5.1990032351915252e-02  5.7434148644811119e-02  5.2128592764421250e-02  5.0335628781796371e-02  5.6979289874382576e-02  6.2829270592805520e-02  4.9559100270465645e-02  5.9519031563753454e-02  5.9156235036139031e-02  5.9700066738879135e-02  5.1438439687740867e-02  5.5648023092997767e-02  5.7002713288026939e-02  5.4652836050718002e-02  6.4418694934665247e-02  6.0647948070455586e-02  4.9308192833468524e-02  5.9434198859838791e-02  5.3814624758054132e-02  5.3939592077059957e-02  5.1473433111968274e-02  5.8479560216421471e-02  5.9612697635921155e-02  5.4463175455057349e-02  5.4869648179888243e-02  5.3827740918936218e-02  5.3133549846270944e-02  6.3449519467357829e-02  5.7649101437586094e-02  4.9990152761048665e-02  5.0987587680381107e-02  5.2671348443996825e-02  5.8923351133411045e-02  5.3344838761693679e-02  5.7803940661741451e-02  5.2852274652833361e-02  6.3147686662779659e-02  5.0785346583275430e-02  5.5478401352620769e-02  6.0571647179047165e-02  5.4427399507157088e-02  4.9930629800403213e-02  6.2368492774209298e-02  5.5799255258741173e-02  5.7777965637350562e-02  6.1319806930553000e-02  5.0839739116419827e-02  5.5938896168120783e-02  6.0694331490086253e-02  5.1445139164645895e-02  5.0206206459817881e-02  5.1068090140599931e-02  4.9358866001102071e-02  6.0987460493678106e-02  6.3451496538212249e-02  5.8705015303735175e-02  6.3030269979330089e-02  5.5407751921042109e-02  5.6350882007384584e-02  5.9198787881769702e-02  5.2103129297120521e-02  5.2341920804629294e-02  5.8429135364879037e-02  5.1206752181115672e-02  6.1670480925023086e-02  5.6391033465424310e-02  6.4065504086146016e-02  5.3467391148380942e-02  6.2835078019146146e-02  6.1909890920785519e-02  5.9701763795130279e-02  5.8281771741371106e-02  5.8288786123180794e-02  5.5082219164610972e-02  5.4402224870549798e-02  5.6544204491324551e-02  6.5426333283361726e-02  4.9447415688867603e-02  5.1140638806669782e-02  5.1059734516016364e-02  5.1132895684073039e-02  5.9818632224841413e-02  4.9370260064516620e-02  6.2981603538878508e-02  6.0322195673840090e-02  5.9692594046144437e-02  5.2214623396379514e-02  5.7334339161301054e-02  5.7265431436981103e-02  5.2184539994886085e-02  5.6846399390993820e-02  4.8934871986659467e-02  5.0338995059365226e-02  5.3683420695865597e-02  5.2049744559249454e-02  5.4085021741628152e-02  5.1979414241071512e-02  5.3081129795134310e-02  5.6102231724587143e-02  5.9333349719991983e-02  6.5984603123663235e-02  4.8972515246324108e-02  4.9654194528486802e-02  5.0047098252142340e-02  6.1481050247612287e-02  5.4652469689622007e-02  5.5012597497045283e-02  5.4533734474404273e-02  5.0212098094251603e-02  6.1078965292234541e-02  5.2511149021381313e-02  6.1142031982219298e-02  6.0996955119761408e-02  5.3151380651684246e-02  5.4956558648365655e-02  5.3461872316972886e-02  4.9932810476375489e-02  4.9975957694630015e-02  6.0075295696284878e-02  6.2476603664545362e-02  5.8432279420798296e-02  5.0545627469646720e-02  5.1672337647292670e-02  5.4264042315128762e-02  5.4908408014499976e-02  5.4402277110809270e-02  5.3730989891422345e-02  5.3059701706895820e-02  5.1871153142955401e-02  5.2117137129391110e-02  5.9251170766305525e-02  4.8962287749095494e-02  5.2280399652404226e-02  5.2448973871227086e-02  5.3265228913206467e-02  4.9598869397905726e-02  5.0552003321316576e-02  4.9692744027674998e-02  4.8963095703948044e-02  5.2161367888805779e-02  5.2069325629314968e-02  6.0597124234713071e-02  6.0471010411427023e-02  5.5840542023119361e-02  5.1334082420955468e-02  5.0018361309831692e-02  5.5485397726727892e-02  4.9587959608702312e-02  5.0786125292857386e-02  5.8199040707379274e-02  5.7655994884812933e-02  5.0493350678689132e-02  5.1786432300620709e-02  5.5456454270789712e-02  6.1676830254477601e-02  5.3341071738441208e-02  5.0999719495712428e-02  5.0954100698027194e-02  6.6895335283772367e-02  6.6935882765615587e-02  6.5884643940989043e-02  5.4517961699531312e-02  4.9582953288878399e-02  5.4905599506347068e-02  6.2539529941020383e-02  4.9603233038354455e-02  5.0927030161727636e-02  5.6850807380674627e-02  5.5368496147319556e-02  5.2317084266118884e-02  4.9567053003037917e-02  5.6876420788681666e-02  5.0957806232789712e-02  4.9641871606160334e-02  6.2796432273379360e-02  5.7309074084173024e-02  5.5801614223862345e-02  5.0905476788731474e-02  4.9573455550350788e-02  5.5214900001244904e-02  5.4256773526302808e-02  6.4471271597348348e-02  5.6387153300200894e-02  4.8995919722200541e-02  5.8708993878052333e-02  6.1453798106478046e-02  5.8508777157288659e-02  5.5389357767697101e-02  5.9196566370124964e-02  5.8839774781456099e-02  6.0328293979414235e-02  5.0936757147360616e-02  5.3972060914038583e-02  6.6587318029483575e-02  5.8544536222819105e-02  6.3650476804830394e-02  6.4063116680623020e-02  6.3567126450202363e-02  6.4768595414717828e-02  6.4797634098123377e-02  4.9591152910179521e-02  4.8943220396812585e-02  5.8065898540029706e-02  5.7662009935349770e-02  5.8188258586004772e-02  5.7912124081594935e-02  6.7407921299665857e-02  5.4676547671498668e-02  5.0453417915100350e-02  6.0911881315995932e-02  5.1421393751197399e-02  5.0968137684242819e-02  5.0713011695706689e-02  5.3616101383103347e-02  5.1528919619536033e-02  6.0350218877111596e-02  5.2505068350498035e-02  5.7313026613095439e-02  5.1168150707057783e-02  5.0666583363494409e-02  6.8475509056584449e-02  6.8215911180552702e-02  5.2277475244841533e-02  5.8380013850714063e-02  5.0416672206639652e-02  6.7652385625160419e-02  5.2600635511031273e-02  4.9522009455655693e-02  6.3413158007118553e-02  6.3545380091244746e-02  5.5467585073971204e-02  5.2580390545966284e-02  5.6444409332826392e-02  6.0450747864120261e-02  4.9348083535876983e-02  6.6507037396611624e-02  5.1255678774356557e-02  5.2722696583805538e-02  6.1152164413734410e-02  5.1834806498446982e-02  6.5052710879470330e-02  5.5874869268457264e-02  5.2174624870614889e-02  5.2991539413982144e-02  5.4557982967000762e-02  5.2667641594613630e-02  5.5211459413300912e-02  5.6315936825548668e-02  5.9616004244496201e-02  5.4913046344250080e-02  5.3334340687197473e-02  5.0227321883291827e-02  4.9551135885116789e-02  5.2431774072413853e-02  5.9397755888503746e-02  4.9988719173299320e-02  4.9571188205119396e-02  5.9655864156213982e-02  4.9450769919466689e-02  4.9402105509590115e-02  4.9440070885382222e-02  5.0253270667192665e-02  4.9662896138059534e-02  4.9439675234089847e-02  5.6225157634956592e-02  4.9469363504018447e-02  4.8974477696561956e-02  5.4611706239871452e-02  5.5849642497862277e-02  4.8956431121191343e-02  4.8969297218927586e-02  4.8970660912963891e-02  6.1283616339018326e-02  6.0028319599523768e-02  5.8768412291280679e-02  4.9374417437469370e-02  6.3804579528319028e-02  6.2189674823273117e-02  5.3355795573716142e-02  5.3677544050650366e-02  4.9684467311829482e-02  6.7247282598718539e-02  5.1535853269681464e-02  4.8984237182094659e-02  6.4720940931333987e-02  5.7110311296242187e-02  6.7514343587910974e-02  6.6306781492443109e-02  4.9336501234250291e-02  4.8991251980615685e-02  4.8927532272105480e-02  4.9140857612585173e-02  5.7497218853076716e-02  4.9375540724760483e-02  6.5059763295374579e-02  4.8990887322289602e-02  4.9024151507855794e-02  4.8976575446855929e-02  5.3790864846304055e-02  5.1766390925126915e-02  5.6348613321499201e-02  4.9993581779134620e-02  5.7224074763251032e-02  5.0122738432624783e-02  6.4197697151438346e-02  6.4448218672989735e-02  6.5355533929815995e-02  5.0978626479804931e-02  6.5668813470329393e-02  6.2441352026856980e-02  6.4725948034927303e-02  5.3219824908900537e-02  5.9282152785700988e-02  6.0449537475875573e-02  5.2620182009425566e-02  5.7513279974098178e-02  5.6925955752275249e-02  5.6360056019620908e-02  5.8765076231450913e-02  6.3917529279941543e-02  6.5079129902736718e-02  5.0867907186949550e-02  5.4462085543081795e-02  5.3820293908236130e-02  5.1564597773549048e-02  6.3606904864304578e-02  4.9636349672177303e-02  5.7105968722373522e-02  5.2982703627550885e-02  6.0289747945607375e-02  6.1798741064513503e-02  5.7582482798968340e-02  5.3413852422087606e-02  5.7415452448941591e-02  6.0982177852464757e-02  6.0456026102916297e-02  5.3618348584360882e-02  5.0561462191850128e-02  6.2136381550911501e-02  5.1695785681921784e-02  5.1222529002840272e-02  5.7621167311537672e-02  5.5502909301415965e-02  6.2142648548140868e-02  5.5089135220917060e-02  6.3783714694742602e-02  5.0961960337772852e-02  5.5897707600695686e-02  5.5553547914368610e-02  5.2300534600346150e-02  5.3548232168940189e-02  5.3295421953409861e-02  5.2464605875252049e-02  5.2567728865264410e-02  5.2120108139761860e-02  5.8158213640411099e-02  5.2948184311211510e-02  5.5060274809575392e-02  5.8598395977446281e-02  5.4374765851147630e-02  5.4032293493695163e-02  5.0499215066213618e-02  5.7106309780307979e-02  5.4391784702546846e-02  5.4051426477371434e-02  5.2741049445071395e-02  5.3420181971483877e-02  5.6654008206702515e-02  5.6394142157597853e-02  5.5532891136379568e-02  5.9933234641137291e-02  5.1608761381874139e-02  5.1270266430640067e-02  5.1169486771601186e-02  5.1638835479165139e-02  5.2032340461299842e-02  5.1275187310591414e-02  5.0906367164732153e-02  5.6394950358350557e-02  5.7350950473990976e-02  5.1021840179119225e-02  4.9723117932433877e-02  5.1482914135181856e-02  5.5592852183982890e-02  5.7902172329201890e-02  5.9741652767851532e-02  5.6093209994679968e-02  5.2927446108864157e-02  6.2424776072609614e-02  5.8362185229190920e-02  5.0667459533915243e-02  6.2962827929265941e-02  5.3810742903283505e-02  5.2282957998244776e-02  5.1891615597223467e-02  4.9636714728794017e-02  5.2048142263658476e-02  5.0091661250254563e-02  5.7838629166362752e-02  5.6555673983254472e-02  5.7911928867401839e-02  5.9023308002175152e-02  5.3538202548828212e-02  5.3322442483643352e-02  5.4701855861023378e-02  5.0456459790299425e-02  5.9516968291607568e-02  5.6441300089435688e-02  5.7875030757815853e-02  5.8439969907101805e-02  5.1146386925727122e-02  4.9882608755004484e-02  5.3288017901553186e-02  4.9891002731948506e-02  5.3201659112190533e-02  5.0521120264082946e-02  5.0638572797410568e-02  5.2462524075465956e-02  5.6454418535429915e-02  5.0452576550496356e-02  5.2297405696546992e-02  5.3457126744667349e-02  5.0963247968777013e-02  5.1581849977966526e-02  5.2081670179813890e-02  5.0788793130344262e-02  5.88557514692