<?xml version="1.0"?>
<VTKFile type="UnstructuredGrid"  version="0.1"  >
<UnstructuredGrid>
<Piece  NumberOfPoints="6486" NumberOfCells="12696">
<Points>
<DataArray  type="Float64"  NumberOfComponents="3"  format="ascii">0 2.5 0  0 0 0  2.5 0 0  2.5 2.5 0  1.25 0 0  2.5 1.25 0  1.25 2.5 0  0 1.25 0  1.25 1.25 0  0 0.625 0  0.625 0 0  0.625 2.5 0  0 1.875 0  2.5 0.625 0  1.875 0 0  2.5 1.875 0  1.875 2.5 0  1.770833333333333 0.7291666666666666 0  0.7291666666666666 1.770833333333333 0  0.9375 0.625 0  1.875 1.5625 0  0.642361111111111 1.163194444444444 0  1.341594827586207 1.883979885057471 0  0.46875 0.46875 0  2.03125 2.03125 0  0.3626104797979798 1.513178661616162 0  1.381740196078431 0.4564950980392157 0  0.9375 2.172619047619047 0  2.172619047619047 0.9375 0  2.096354166666667 0.4036458333333332 0  0.4036458333333333 2.096354166666667 0  1.684027777777778 1.163194444444444 0  0.3418803418803419 0.8693910256410255 0  1.642742622813391 2.162164207604464 0  1.275619849389031 0.8465650753054845 0  0.9136284722222221 1.434461805555556 0  1.732437511238546 0.3406962303960658 0  0.9714402568595876 1.029779313093998 0  1.52281746031746 1.485615079365079 0  2.1875 1.71875 0  1.06819722569879 0.2997236128493951 0  2.136114211309524 1.303478422619048 0  0.3125 0 0  0 0.3125 0  2.5 2.1875 0  2.1875 2.5 0  0.3200021620376328 1.192323085056694 0  0.6738456129277992 0.8304377375553881 0  1.757891808928991 1.861952730357003 0  1.5625 0 0  0.9375 0 0  0.3125 2.5 0  2.1875 0 0  2.5 0.9375 0  0 0.9375 0  0 1.5625 0  0.9375 2.5 0  2.5 0.3125 0  0 2.1875 0  1.5625 2.5 0  2.5 1.5625 0  0.7448220909826522 0.3003573636608841 0  1.027298850574712 1.871151477832512 0  1.331260495098891 2.197262878816185 0  1.207917681892289 1.582765010956622 0  0.4339993447432606 1.801186844743261 0  0.6337298768939392 1.443093039772727 0  2.049851190476191 0.6826636904761904 0  0.6584821428571428 2.219122023809524 0  1.89575676467455 0.9798457973793544 0  1.437570562095628 1.059380588255917 0  1.502090052505845 0.6987070896496241 0  0.2040860661083546 1.705323965099331 0  0.2083333333333333 0.46875 0  0.5070952039991439 0.2211150679997147 0  0.6916302856529919 0.5813591430410241 0  2.265625 1.953125 0  2.2265625 2.2265625 0  1.886424081252096 2.243391360417365 0  1.40625 0.202164758520858 0  0.2269345238095238 0.2269345238095238 0  1.152730869673694 0.5225850378741401 0  1.885631899587912 1.312095130148776 0  1.614808884009367 0.9049784971014416 0  1.890095442220658 0.5126535558463003 0  2.323168682795699 0.46875 0  2.268811725689575 0.2304742875213018 0  0.6002389442105756 1.967426444210576 0  0.1768313172043011 2.03125 0  0.2311882743104251 2.269525712478698 0  2.03125 0.176831317204301 0  2.280262553344767 0.6954945504579233 0  1.979219539285994 1.809922269642997 0  2.336309523809524 1.09375 0  1.09375 2.336309523809524 0  0.9314042474388009 1.662973812215543 0  0.1634067999087722 1.40625 0  2.337090640094896 1.40625 0  1.141616997467638 2.069311773587991 0  0.46875 2.338939559681489 0  1.542440307908715 1.734944797244472 0  1.556713687786879 1.956977865354753 0  0.8264238995344066 1.975424467820646 0  1.466326331454725 1.275271369760862 0  1.655675324257095 0.5444159974393489 0  0.3385416666666666 0.6479255698005697 0  0 0.78125 0  0.5236073939200119 0.984090461540625 0  2.091665741047893 1.519793517904215 0  1.71875 2.5 0  0.5356538886262603 1.623137930505009 0  0 1.09375 0  0.1932884281517095 1.015625 0  0.8569313582417669 1.2198915584249 0  0.8876981284879677 0.8329884081524883 0  1.115618488474214 0.7219586973356271 0  1.186950366204949 1.043465130075318 0  2.057459118787237 1.110823087309335 0  1.830651283878689 2.049810069572418 0  1.689107969301489 1.367247437031697 0  0.4921048768039656 1.298643370653124 0  0.8213975694444444 2.336309523809524 0  2.03125 2.5 0  1.049729400480002 1.283723261332814 0  1.308101375801673 0.6489479469700392 0  2.5 2.34375 0  0.4968777175037714 0.7562964879736076 0  1.40625 2.5 0  1.501347663534097 2.307027627307738 0  1.602813712048603 0.1926218191360736 0  0.8393082906308107 0.463778306132633 0  1.682663349152719 1.598471865581041 0  0.7774174680851571 1.560004941327907 0  1.554204170364662 0.3898593897892066 0  1.842184459051087 0.186443880058197 0  1.358107417651776 1.696381759610015 0  1.18859291992392 1.77598670078022 0  0.1875331222687418 0.7609599743339348 0  1.339536743965101 1.422080365801479 0  0.7788179348750389 0.9955343414928611 0  0.9062978492805438 0.1919636509126373 0  1.256007360640958 0.3160320559396114 0  1.09375 0 0  1.174986727221844 0.1594990293443933 0  2.34375 1.796875 0  2.318026474511116 1.589177949022232 0  2.34375 2.5 0  1.672742954892153 2.332882724550692 0  0.2683637361947215 1.874801596909639 0  2.174770749820102 0.5581009131310781 0  1.443279522965991 0.8870068372898454 0  0.3385416666666667 0.3571428571428572 0  0.78125 0 0  2.060421048269335 2.314363248763811 0  1.088078737088509 0.8967352118723447 0  1.087825368444708 1.454931510884769 0  2.018308232129541 0.8548495425854904 0  1.943987311736842 0.3246298523011434 0  1.71875 0 0  1.85337849796276 1.144833312386208 0  2.3486328125 2.1044921875 0  1.407588788651747 2.042968789119587 0  2.336309523809524 0.865366648092144 0  2.34375 0 0  2.5 0.15625 0  0.15625 2.5 0  0 2.34375 0  0.1638044648294291 1.242263417405867 0  0.356216654757926 1.032569427322806 0  0.3188217956111817 1.355736727000647 0  0.5924956460852111 0.36112522004736 0  0.6594216488965849 0.1603472116132387 0  1.841804599497131 1.72214349266521 0  0.15625 0 0  0 0.15625 0  2.115898634821499 1.894570904464496 0  0.7821877980253907 0.7129993435924866 0  1.003820447087786 0.4516053462784233 0  0.477562948779147 1.138333049293613 0  0.719493678605015 1.305655360135975 0  0.9772457618587566 2.020350128938537 0  0.8764738248887107 1.826219722709673 0  1.254787875123819 2.339010653832026 0  2.343597354852534 1.249982759769001 0  0.78125 2.5 0  0.46875 2.5 0  2.5 1.40625 0  1.09375 2.5 0  2.5 0.78125 0  2.5 1.09375 0  2.03125 0 0  2.5 0.46875 0  1.40625 0 0  0.46875 0 0  0 0.46875 0  0 1.40625 0  0 1.71875 0  0 2.03125 0  2.5 1.71875 0  2.5 2.03125 0  2.005424054645407 1.653223486966518 0  0.1538730573856537 1.559850281736677 0  2.33984375 2.33984375 0  1.166539506212474 1.922878979538754 0  0.3914885633949916 1.65887232812171 0  0.5795503163042564 1.766243562569382 0  0.399533125920212 1.946786875081388 0  0.7866324979014098 2.127719094551316 0  0.3654683023546834 0.1495701132219454 0  0.1527388747131078 0.6116379440619215 0  2.013737577140188 1.391056634712135 0  1.17635437372994 2.213329084238133 0  1.737118141866284 1.010577140843115 0  2.200707118087222 1.164723314085963 0  1.697018908736685 1.993548551451517 0  0.5387621649009668 0.6070503962352419 0  2.032805785855952 0.5330427622570983 0  1.082699501358059 1.667818725183932 0  1.503819781540653 0.5468420196858188 0  2.015409142866072 2.175941657590429 0  1.752057611265444 0.869642097111018 0  0.612251684107783 2.356045720700959 0  1.902817102342857 0.6607642211999982 0  2.159616561739693 0.7867739969338844 0  0.5120038350106624 2.197302352398502 0  1.888200216011548 1.919501662489862 0  1.495909909726654 2.16028358757309 0  0.489139876703609 1.443203008943564 0  0.8819175670410521 0.3301172743913011 0  1.882591144370812 0.8155965192707721 0  1.133979796994841 1.172526771862882 0  2.206217447916667 2.084147135416667 0  2.20361328125 2.36279296875 0  1.395746985657004 1.556054166359645 0  1.704383111516207 1.734750450338683 0  0.9575737847222222 2.36274223823052 0  1.035150984253136 0.1302833343179028 0  1.383966125325753 0.7651479963479179 0  1.64003252158672 0.6824316405528895 0  2.22550785055421 1.487078576356817 0  1.760964431499756 1.48495222505201 0  1.276460980673788 2.004207003584658 0  0.1341477688427096 1.828777507920502 0  1.542261434180652 1.155296658359034 0  1.334627911613854 0.9696897472490321 0  1.30794231473696 1.119420615785191 0  0.7028260459857245 0.4438906910721139 0  1.625757433094055 1.84268057552138 0  0.9818707849053143 1.165603626132254 0  2.0086489901463 1.243134585689553 0  1.934584460420609 2.374094051915812 0  1.798434376789567 2.38671361912528 0  1.206314791201715 1.382064292497919 0  0.6333752893366955 0.7023738550008095 0  0.7796219811205605 1.42573253164258 0  1.564399711917382 1.026040828857629 0  0.3385416666666666 0.4889012896825397 0  0.1041666666666667 0.390625 0  0.989112246382566 1.543537365516289 0  2.025724425454636 0.9846960595520872 0  0.6602885475034063 2.086117390485779 0  1.607130551925032 1.267198646640915 0  0.1317864544877056 0.8896173683400176 0  1.755387840017567 2.230364320056445 0  1.301540702984401 0.1216289692748247 0  1.433170657577442 0.3331052752740999 0  1.500459610550388 0.113513924782439 0  0.6494291520606965 1.029586599619295 0  1.010146149868299 0.794897284196169 0  0.3700844198238017 2.235390157870766 0  0.3360891767780704 2.36656279435396 0  1.876856241037701 1.437150669863757 0  1.778674102957329 1.245979347269706 0  0.5472829890977179 0.1005517127039925 0  0.4669074189005698 0.3416784232954367 0  1.472765289289269 1.850899166481903 0  1.555853593327178 1.608452097912802 0  0.6708955559113426 1.646561631116984 0  0.8164699620322933 0.5924479455478063 0  0.3167738989468366 1.758696809749795 0  0.2788007305565096 1.605499483471246 0  0.7821720982350511 0.181524936294752 0  1.376812251214195 2.313340247908297 0  1.785652202614777 0.5962261755537186 0  1.761467296310972 0.4679567244718574 0  2.2265625 1.8359375 0  2.3828125 1.9140625 0  0.5279531607054191 2.071552361614785 0  2.397573269551114 0.234375 0  2.383578172599618 0.3589298466020009 0  0.1024267304488855 2.265625 0  0.1164218274003825 2.141070153397999 0  0.2696857594953064 2.135405441512016 0  2.164961300137334 0.1375322943529536 0  2.137757548369486 0.2724194778647587 0  2.238873711826398 0.3626419179496562 0  0.1001414910226386 0.234375 0  0.2176339285714286 0.3478422619047619 0  0.2503620791333544 0.1061694061057066 0  2.336445461915368 0.1250451055247424 0  0.2154004640409726 2.3918124
[...]
<PointData  Scalars="f_124-1"> 
<DataArray  type="Float64"  Name="f_124-1"  format="ascii">3.2165816026234067e-18  4.8766101872143626e-04  4.7290990655107273e-24  1.8293009308178572e-27  1.3103784870192125e-08  2.2199799894100771e-21  5.4532258239588666e-19  1.2267870248049544e-04  2.0265825069921405e-07  3.6013063113735845e-02  2.3269934184654156e-04  3.1339808817600337e-18  1.8042625150854062e-10  1.5969986871108722e-23  8.9394171214241879e-16  2.9548501114366528e-23  2.4748270339360463e-22  3.6713601128408330e-12  2.0269086539195209e-09  4.6376536721844255e-04  1.9927629173097578e-14  2.2297127169029367e-04  1.2319150855673396e-12  2.4273893984289547e-02  3.5048724355832964e-19  8.7246396891080422e-07  1.4558187071515441e-08  2.7384475785538691e-14  4.5479083723147280e-17  1.6834550404346203e-18  3.6917377973626462e-13  6.1100083795772581e-11  9.4357993178904812e-03  2.9619563593566441e-17  1.7688797094571292e-06  7.4383975488720876e-07  1.2132359500628372e-13  8.4538575892141615e-05  9.3390041588152122e-11  9.9777750975358659e-19  2.5845993418168081e-06  1.6537790086433292e-16  8.1905948341663953e-04  3.6714200746142220e-02  4.5828592465665987e-25  6.8832729602913386e-25  2.6913795011011409e-04  4.4401559775258627e-03  1.8304230930274530e-15  4.9851023609604020e-12  5.3587574901277521e-06  1.7352087987684930e-18  5.3776082850053632e-20  4.8686720860492274e-22  4.5528651026414749e-03  4.1660810987270804e-07  1.5010560585674849e-18  1.2713714529207411e-24  3.1044259425316354e-14  2.0333806207366116e-20  7.0696648622729243e-22  5.1052179733497452e-04  3.5948271704233313e-11  6.3620065311927341e-16  2.3096096693847445e-09  1.2260118683960788e-09  3.1063302650647881e-06  2.8298746114583270e-16  8.6640599476286611e-15  2.8425817374549316e-13  3.8991845213415797e-08  6.4406067662465510e-09  1.4178626473970091e-08  4.9684121109729792e-02  2.8491340477032902e-03  6.9115774644741730e-03  4.9441675189300489e-21  1.0432350222461334e-22  5.9880914457307854e-20  4.1255463598378767e-10  2.3966624961316435e-02  5.6071312288750268e-06  1.3870760490319835e-13  6.9274731673300112e-10  6.9215832020509857e-15  7.4410430199406101e-22  2.0921441018348661e-21  1.4543123913836750e-11  2.6583655273664276e-12  1.7459516555311069e-15  5.2132888281811157e-18  1.0582482646129383e-19  4.6716209578447100e-17  3.1325471648050120e-19  1.1995192823208679e-16  7.3272107749984604e-09  7.9114835226081956e-06  2.2080889549780800e-19  1.0831519168507407e-13  3.4355597600420853e-16  1.0460126585194506e-12  9.5268240721098216e-15  8.6055115951555944e-12  3.5422129012969592e-09  2.1241827907385386e-11  3.0556157784941407e-02  1.5077561607679445e-02  2.5139648351601711e-03  9.6691623954972579e-17  3.0092686987998227e-21  7.5891644265747172e-08  9.1175130152353328e-04  2.2413027990499722e-03  2.9692884773788424e-05  7.2065930211261185e-04  3.2984421975660362e-05  3.6388046590951310e-06  2.1791750636254873e-15  1.0792102280319404e-17  1.1283134568548582e-11  5.0652761345510659e-05  2.4629720918077627e-16  1.5453563024750426e-23  1.4489334839944114e-06  4.8981299052962457e-07  2.9462411214077916e-26  1.4315676876380778e-02  1.2075472569289913e-19  5.5683034386246776e-18  2.0800098250616815e-12  7.9223294060665336e-04  7.3667446702393496e-13  1.5371752602489639e-07  5.3714274746039997e-11  1.5012053123000867e-15  4.1481465097462990e-11  6.9605214144358755e-11  1.9208873646265157e-02  5.2648999669092896e-09  7.1331920419381595e-04  1.4144400985966713e-05  5.1164237233744082e-08  3.2728947180514992e-07  1.0194188277374818e-07  5.4956843947499557e-21  9.5480372642871883e-20  3.4472093081762728e-26  3.0386927542643967e-19  2.0261450386295533e-10  6.4035933799088720e-19  4.5148354217261068e-08  3.4293310298964610e-02  4.5921184774227226e-05  4.2525952309545845e-22  4.0677613147761022e-05  8.6061371971973577e-08  3.8752094624715874e-15  1.3729982926207992e-16  8.4453211479224182e-14  7.1841143226628285e-13  5.7405373904576528e-23  1.1277467375885198e-14  8.3260801004200851e-20  5.2328316946893955e-22  2.4382381812943252e-24  2.7369915956341915e-18  2.1318383598081519e-16  1.1407208616947743e-04  2.1221482013005590e-03  1.8595963614764616e-05  5.4514534296102963e-03  2.7470973516178148e-04  3.6203750967833739e-15  3.3896779082526169e-04  1.3420655530709705e-02  4.2948316056921043e-19  2.7888966922572159e-03  5.5258524813655755e-05  5.5094604554039358e-04  2.0072648663929411e-05  1.4739558441719616e-12  2.9579980066622558e-10  3.5910984731693007e-17  2.5578313542506343e-19  1.7851587290978539e-18  2.6020830917944993e-18  1.8944527709000226e-21  1.1485716335644500e-18  1.1437047157799622e-22  1.5936928864378764e-21  8.4248385486108344e-18  1.2967437491641260e-24  2.2492197779183015e-10  6.3361824751440574e-04  5.0303174174412955e-02  9.9586071677026207e-06  1.0920671957868064e-08  3.3281275794244086e-12  1.8017475724947842e-22  4.1687332197855185e-24  2.4195533809668358e-16  3.7302707592257545e-07  1.0457882215482170e-24  3.0531997110227639e-12  4.0840886548263838e-08  2.3731917319699577e-09  2.7053960350606834e-11  1.2839512191858851e-13  4.0719273507046506e-03  3.8375260601891233e-02  2.6979183930796749e-15  2.3377605432609501e-15  2.4315123097580334e-11  2.4274678223723397e-17  4.7453075523310751e-16  1.8266077606674716e-02  7.6692618202229154e-17  1.9427510386914720e-09  1.4477545881885663e-09  2.2477750064384493e-20  1.7626090051264130e-11  1.4871165582397012e-16  3.3659941067234750e-14  1.7730738994990895e-17  2.2014376597346524e-14  4.5472801502078275e-17  2.3083990897975089e-16  3.8158951778617941e-06  1.0708512500036751e-04  1.7673544761697935e-13  2.5267459556137294e-06  2.1960601248916696e-21  7.0843512793429955e-24  2.4106453454791972e-10  4.4775922923949967e-14  7.5624597534023627e-17  1.3542374875996070e-06  1.4879588390670319e-07  1.1735346294770983e-10  3.7086525922615355e-18  6.9061480692205231e-13  1.5887601027148414e-13  8.3089973513507762e-10  1.8820039274838273e-09  4.1131259895492557e-07  2.5208685935520662e-07  3.5447143603485219e-03  3.3918024941626670e-14  1.7053051449918928e-05  8.3967236179234679e-15  1.3815020014830470e-21  1.0419593769734783e-20  6.2814954863093541e-08  9.5742948501775504e-03  1.9833221904247366e-06  2.4744225771541080e-09  4.0158951050136546e-02  4.4854387574327109e-02  5.1957358786326786e-08  5.2693200844108497e-15  4.0309809006409963e-13  2.0374261328456346e-10  7.3251706325685954e-03  1.0363646420513666e-18  5.0217355076850219e-09  8.0531397855175846e-10  2.8870435448298865e-11  9.8191963855835912e-04  1.5861603401281146e-04  8.8964213831596964e-15  9.3325104622188553e-17  6.4461800786874328e-14  3.3922514939382895e-12  4.9339907871753818e-04  1.4295945745096997e-02  3.2541018590347157e-13  6.4757081276772619e-12  3.6059978170121147e-08  1.9556280098361892e-03  3.6773321661612774e-09  1.3726533374037318e-07  8.3599388677963496e-05  1.6730921055475366e-17  6.3253494256627764e-13  2.4678675859332664e-13  8.9441639804366640e-20  3.9616169786040004e-22  8.6433697244108345e-13  2.6820598662191772e-23  4.6160255123125227e-23  3.4714991929191942e-15  1.3765825172996108e-13  1.7917700378093344e-13  8.7002804076635228e-20  1.8093593875738965e-19  8.1016388034991673e-21  2.4449623528564841e-02  4.0830182405261241e-02  5.1814714958681061e-03  3.3279946821144017e-22  5.3188594898886381e-17  4.4832932588152111e-15  8.5979460208599964e-03  7.8818110248347485e-14  5.6198839803201880e-05  1.3946311569655607e-06  3.6357708034894891e-07  9.4853478761048578e-12  9.6302249605843097e-12  1.7666841627820713e-04  3.4551009075440624e-11  1.1600013716627909e-16  9.4692544250216622e-22  4.6327830011344390e-21  2.9150380089345403e-24  1.1591304849176125e-02  7.2804533812393747e-11  1.0840156961121056e-10  3.9389049794852426e-09  4.4041830900504343e-18  3.2270508043797545e-10  6.5718933931551665e-15  7.5353361792296746e-03  1.0615183217558416e-08  5.0820241094447952e-10  4.3064924421009360e-18  2.0503801499510058e-05  1.3295236925414535e-17  9.6782386627260220e-15  5.0438907626002461e-04  3.1586782103954452e-20  2.5242959690838368e-02  5.5203673036752212e-05  1.3010370207329927e-17  4.6426645496196872e-18  1.2921770509649566e-16  7.3038696974225137e-18  2.7713473926105829e-06  3.4988339978572622e-05  1.0179072511890615e-20  4.6309384970323633e-18  1.6975739982688561e-04  6.4300533259403181e-13  1.5380565239939470e-10  4.9003953705711549e-19  7.8191372648870540e-15  3.4588844975839947e-21  5.0321815633834913e-16  2.4229156068801305e-08  3.1991829771325821e-17  4.2969188517825087e-06  1.9796987376746567e-02  3.0152508359537141e-02  4.0225165327521857e-02  4.6259791474297672e-12  7.5659603510873463e-08  3.2268497400101185e-04  2.1315950238768647e-20  2.4529856927643819e-20  1.7623535186350527e-18  4.4763608090684923e-17  3.3861494583591017e-26  1.6952874669821353e-15  8.4624700939396951e-17  3.5386810889235183e-08  1.5282833680446337e-23  2.9375038914942063e-11  2.5806851096685759e-17  5.7573235930374197e-13  2.0864513500867251e-11  2.2607706247851179e-08  2.3795219470245503e-06  1.2891258839140142e-02  2.7257476798739853e-21  1.5539237362215454e-11  1.5085505263775376e-05  6.1505450078494793e-06  2.7112152684693326e-19  3.0148303580338049e-03  8.6133130306995499e-04  2.0033066209376059e-03  1.7890713806448442e-04  6.6814072448972954e-15  7.2943231206082355e-06  2.0183442833593610e-10  1.1480577719990991e-08  2.5310475109124707e-12  8.0910150793350752e-14  1.3425423812286730e-18  1.4270543374114056e-07  1.9826761492065415e-07  1.4956811169225741e-03  6.0466798375347323e-15  6.6214941752696021e-03  4.8494282263844047e-04  2.8673463749727937e-20  1.0174505851319130e-09  1.4351094136991283e-12  5.7489339703118673e-20  6.4521553078185004e-07  5.0593732272211325e-02  2.7786228319151732e-03  4.7761443121382345e-14  3.4387132232419610e-16  1.8667769091508492e-09  4.4564741001536980e-16  3.2910120964201602e-19  3.3302842158369729e-07  7.5392311344988040e-03  4.5275140129649075e-23  5.5907960664879171e-06  3.3917968991330707e-06  1.3291294932257523e-05  7.9324327989391481e-20  1.0770914197420540e-08  4.2813136541260376e-07  8.4726455233233193e-13  2.2839740112962813e-02  7.3875589037445582e-04  2.6730413414001591e-18  5.0695254971845769e-07  1.0300162143162831e-13  3.6823886730426468e-16  1.4169696324251332e-17  1.4303406893354329e-05  1.6882898488089769e-04  2.3762444349934698e-10  5.0419234907428801e-14  1.7769831917106399e-16  3.7332566049745924e-18  1.0511922461202248e-04  1.5473243547606976e-08  1.5233886720914098e-17  7.8909100837359461e-16  5.4954494231605018e-18  1.6828821739485343e-08  4.4270995495799963e-12  3.8310795227255280e-10  2.3504328631301343e-15  8.2498994589461308e-05  3.8574454550468605e-20  8.7009528715565289e-09  3.5553586052667397e-05  6.1798236399309120e-15  4.2712985547971771e-25  2.0041216237930409e-03  6.0735275657858418e-13  5.5613378377441036e-08  1.1448239664127522e-05  6.0367120007157124e-21  5.0409770038895701e-10  9.1448587645131900e-04  8.0330835720620777e-17  2.4045988548254313e-22  2.9469117154542303e-18  1.0576562215706333e-18  1.8102860003939519e-04  1.9189832188777976e-02  2.4335597238797294e-07  1.4262010338912482e-02  3.8627627054772349e-12  3.3889956948327235e-10  6.9267962434946503e-05  6.8868086479053476e-19  1.8574212129944339e-18  1.4466339172380569e-05  1.4074719124283608e-15  4.0221089159637909e-03  1.0188786979915873e-10  3.1303283990670866e-02  7.9432555411724514e-17  9.2305361138425633e-04  5.9740779731903685e-04  2.3268276817433973e-07  1.3040421225151065e-08  3.8064321768855197e-09  1.6501209029457409e-11  5.3416817538142761e-12  3.6548758432240434e-10  1.3563792998958560e-03  1.5400998572651406e-18  4.8646382214564584e-21  1.2983933012160194e-22  1.4637975718607019e-15  2.0083958024334642e-04  7.9025308170844823e-21  2.8277477173426673e-03  6.6342630962462805e-07  7.9069079360467577e-05  1.0273149979037564e-13  6.8228949821091971e-07  8.3866347453237707e-10  2.2897470191968068e-17  6.7176912122588152e-09  2.1773353021555168e-22  1.6656300975025723e-19  1.1834614426244585e-13  7.9950286990419728e-19  9.4767900608570220e-11  2.5167957769739105e-20  1.1056622168269769e-15  4.9224416925296617e-10  1.2448074401534136e-06  7.6346965713463557e-04  2.9188400237137831e-24  5.5696010163837517e-23  1.6547584498806668e-17  5.4064351774991019e-06  4.7886167595370373e-10  1.7373123503933498e-09  3.4670675760126742e-12  1.5453315005306474e-22  2.2380425835794699e-05  5.8056461655067736e-15  1.3691879766159740e-04  1.6535779507828438e-03  2.3771201742033422e-14  1.4942856363374949e-09  8.8224001105104906e-12  2.4557213942239155e-17  3.5499311523784258e-17  2.9066974332978975e-07  9.2964165845424795e-05  1.0578044087181808e-07  1.3235573560482096e-19  1.2915126634872496e-14  9.0032806916351641e-11  1.0243159664933434e-11  2.2799418213852194e-12  3.0115881461287101e-15  2.8175954492025557e-12  1.2603724753713425e-18  1.7517856750952750e-17  3.0432809740223562e-08  5.6532541635034629e-23  6.9522868523042380e-16  3.7847588846520409e-16  3.6311053675052976e-14  3.3982804954360464e-22  5.5878832450345554e-21  1.4219426626106375e-21  4.0288026587857088e-24  1.6815397241155429e-14  2.0988059232034912e-18  8.7860700294799384e-04  8.0756835922539026e-04  3.1068449663661693e-10  3.1931755434640732e-18  2.1256737167087256e-20  3.1264290761962654e-11  4.4792355940246244e-24  1.6595254110735732e-22  3.3997937814154775e-07  6.4453353858923568e-08  5.2252132524187750e-22  2.4423917236639367e-14  1.8061100636902007e-09  1.4062285820061604e-04  3.0359674670493908e-16  5.2712775083897148e-16  6.0080169192153587e-21  3.2565978032453459e-02  4.5652483487026177e-02  2.8187194523068549e-02  2.2775725117190082e-11  2.1092586898022078e-23  2.3296214002660568e-13  8.3661823384931101e-03  5.0527589709186557e-22  4.3593836996764609e-16  2.5964967759863857e-11  1.0193745163977618e-11  1.2713505912702581e-15  2.7384920360142107e-25  4.3562057183576097e-11  7.9713158174038997e-20  2.1253934383504802e-23  1.3172564392437075e-02  7.3091789093601922e-07  1.0977693565169904e-10  4.1858568024372146e-18  5.1630788436212220e-21  1.3624641159619483e-09  3.5591786904807845e-15  7.4177051061411739e-04  1.0992175939966698e-09  1.1339760091713127e-23  4.9560151342649610e-08  3.2429423047225449e-03  1.2383301763011617e-05  1.5458406757238547e-13  7.0863906763844663e-05  8.1847286798839324e-07  1.1747163041894582e-05  3.0779062380626275e-18  4.2826289793651122e-13  1.6030935016138396e-02  1.8110051373836521e-05  2.2232919440093603e-03  2.5726167560310048e-04  4.8300675748420732e-04  1.3334127456430783e-02  5.1881605508439710e-03  1.8769978428055146e-20  1.0850153637487892e-21  1.0634105198030696e-08  1.7276337129819781e-07  1.9122003478970555e-07  4.3151975365769558e-06  3.6623117435254211e-02  5.5080443750553396e-15  9.1508493848486413e-19  1.5785227594737973e-06  5.1991601202773228e-20  2.1407107229701290e-20  5.8280619765461223e-22  1.5322573729431986e-13  2.0128045158186074e-21  4.7105220205098449e-05  4.9124416744216566e-18  2.5050162346546555e-08  1.2262516907630059e-16  5.8780774431861858e-17  4.5426856618125094e-04  1.3902468962614396e-03  2.7874569287646358e-19  1.7372483939336467e-09  1.0013437366240907e-23  1.7946561439620604e-02  2.9508527163808708e-13  8.1714333031864712e-24  5.6085791848261490e-03  5.0912794263803197e-03  8.8491285102634911e-11  1.7460481208096048e-16  3.0707168922548924e-08  6.4406650476785005e-06  8.5109096045878357e-23  1.5423336241455407e-03  2.2180402851785933e-20  9.7007929718749443e-18  3.8085229018052429e-06  1.9135571032011793e-16  3.6385994145602951e-02  2.0339455072583743e-08  5.3952867035329301e-14  1.1230565602798552e-12  9.4119566741389526e-11  4.3376527530763599e-19  6.8010840686257837e-14  1.3185213684899520e-11  5.7068498077635020e-06  3.6015345657654737e-12  6.0310392512625194e-15  2.6527906136308172e-19  1.9590656444608914e-20  2.4189088322169777e-13  1.1588238712708688e-04  7.3402781771383884e-19  5.6494682042044824e-21  6.2501287542099135e-08  1.1942218846423586e-25  1.8713704483972791e-18  3.8523036160669061e-24  2.3401530381548524e-17  3.3131358838055259e-18  2.3036099472154849e-19  7.8308907730204019e-08  2.3428356865446546e-18  4.5416468844458983e-22  7.1218234761447961e-15  6.5566023641709415e-13  2.0346304879622323e-21  2.0442871121950408e-21  1.2799315598832741e-21  2.1517023151913107e-03  3.4367101202893154e-04  3.8971161953987022e-05  8.4446432052106470e-19  2.5976207390039668e-02  1.6617268314537916e-05  9.5053446035188449e-17  2.7304470425300987e-11  2.4496520759211773e-18  6.9718648468886459e-04  2.5983309511478443e-15  1.5340482542796877e-24  4.3763093580616758e-04  4.0439292213647100e-11  2.6064792890413274e-02  4.4824363530766444e-02  8.2153689576737024e-22  1.1585292957569805e-25  7.3659152652426446e-27  6.2083445661113085e-27  1.9523917284171144e-06  4.1519384162433130e-20  4.4966194048908191e-02  8.6300530506783152e-23  1.6578320178989645e-24  1.1221917300865712e-24  5.8259745930118287e-14  1.5007283993409926e-15  9.4657453957964651e-09  1.5913951533426355e-17  6.9960851906858852e-09  4.2957179986728608e-18  1.2173836210847257e-02  1.6571846863122977e-02  2.3413245044539132e-02  1.0438170957179276e-19  7.8185659295158339e-04  1.1063209324194180e-03  4.0768516124067872e-02  3.8139362407074361e-12  2.8577570710404117e-05  2.8110277567524571e-05  2.4169630827119130e-13  2.0696247748423433e-06  4.6808060183107342e-07  9.5657480530789453e-08  2.9442859675796580e-05  2.8648685068808303e-02  4.5993150992577017e-02  4.3894087560867744e-18  5.1320157980060940e-14  7.7465518614563729e-12  5.5082479756151554e-17  7.8124961714473792e-03  1.7557861990049299e-20  6.0415635756757110e-07  3.5342583582548954e-13  6.8146033841643857e-06  4.8154085900164716e-03  9.3411138890407976e-10  3.9287830166888873e-12  4.0957008948733138e-09  4.7790397749164894e-04  5.3866283827892432e-05  5.9750674520950579e-16  7.2834396212273492e-19  4.6860679658223842e-03  3.9404285908225386e-17  1.4266266637322582e-18  6.0797221575456855e-07  7.2988109572963904e-11  1.1695516245383247e-03  4.8727207124763444e-12  7.3248824244389974e-03  4.1314557838824353e-19  2.0972044969854218e-08  5.6656568878900484e-09  1.6799807386276830e-16  2.6617452072832519e-14  1.8334696264414686e-14  3.8963651164043102e-16  1.6962807616237908e-15  6.8429993860072717e-14  9.3979611757327910e-06  7.9947595159453263e-14  1.6532120150248449e-09  7.5888005505351027e-07  1.9778869696527058e-10  7.7988147698500238e-11  3.0320926478285693e-18  1.3092331836557226e-08  4.3083900076303053e-13  5.0494311099486229e-14  1.1451510033489566e-12  6.6438924354770661e-13  1.7567086793396884e-07  8.3309405276434968e-08  7.7075118807692090e-09  1.2676940164025709e-05  1.1505005882161939e-19  8.7628242605280565e-16  3.0092475231504298e-16  1.1665166714692594e-14  3.6910589192211815e-14  3.9177563626480079e-15  1.4666523869362671e-18  5.9741796353534740e-11  1.8629280576534348e-10  1.2261464889003265e-18  5.3333925303459468e-21  2.2609048923015175e-17  9.6685413555510865e-10  2.7334822924325978e-06  1.8364073756451472e-04  8.0815191055369643e-11  1.2963716935395812e-17  1.5527937963961860e-03  2.5828741643145957e-09  1.1092867597895503e-19  1.3047041721514371e-02  4.2942437057816226e-16  6.2644686650719269e-20  5.2097097105338256e-20  6.5754311385022289e-23  4.2913400720947409e-17  1.5188394969386671e-17  3.7062830147500655e-06  1.1680474225038474e-10  2.2965245345801147e-08  5.1833764460964722e-05  1.5152296666826399e-15  6.3918118583772048e-17  4.1812690046313845e-10  5.2694662619065718e-22  1.4188127125730621e-06  2.4812068873441100e-09  3.6058164384408459e-06  1.3694090266868033e-05  1.4596798400123052e-15  1.8270218501428132e-17  1.0272360014341503e-15  8.8568974433525023e-18  3.9620637186462489e-15  1.5096761760023456e-21  5.7919369165821355e-23  2.2184265331873367e-13  4.9894410682756566e-12  5.9321994446164442e-24  7.3379765620537807e-19  1.5400730965132124e-14  1.1936290675670455e-15  1.3456978308513802e-14  8.9922878597760155e-14  8.2722396647274112e-16  1.61425976730