<?xml version="1.0"?>
<VTKFile type="UnstructuredGrid"  version="0.1"  >
<UnstructuredGrid>
<Piece  NumberOfPoints="6486" NumberOfCells="12696">
<Points>
<DataArray  type="Float64"  NumberOfComponents="3"  format="ascii">0 2.5 0  0 0 0  2.5 0 0  2.5 2.5 0  1.25 0 0  2.5 1.25 0  1.25 2.5 0  0 1.25 0  1.25 1.25 0  0 0.625 0  0.625 0 0  0.625 2.5 0  0 1.875 0  2.5 0.625 0  1.875 0 0  2.5 1.875 0  1.875 2.5 0  1.770833333333333 0.7291666666666666 0  0.7291666666666666 1.770833333333333 0  0.9375 0.625 0  1.875 1.5625 0  0.642361111111111 1.163194444444444 0  1.341594827586207 1.883979885057471 0  0.46875 0.46875 0  2.03125 2.03125 0  0.3626104797979798 1.513178661616162 0  1.381740196078431 0.4564950980392157 0  0.9375 2.172619047619047 0  2.172619047619047 0.9375 0  2.096354166666667 0.4036458333333332 0  0.4036458333333333 2.096354166666667 0  1.684027777777778 1.163194444444444 0  0.3418803418803419 0.8693910256410255 0  1.642742622813391 2.162164207604464 0  1.275619849389031 0.8465650753054845 0  0.9136284722222221 1.434461805555556 0  1.732437511238546 0.3406962303960658 0  0.9714402568595876 1.029779313093998 0  1.52281746031746 1.485615079365079 0  2.1875 1.71875 0  1.06819722569879 0.2997236128493951 0  2.136114211309524 1.303478422619048 0  0.3125 0 0  0 0.3125 0  2.5 2.1875 0  2.1875 2.5 0  0.3200021620376328 1.192323085056694 0  0.6738456129277992 0.8304377375553881 0  1.757891808928991 1.861952730357003 0  1.5625 0 0  0.9375 0 0  0.3125 2.5 0  2.1875 0 0  2.5 0.9375 0  0 0.9375 0  0 1.5625 0  0.9375 2.5 0  2.5 0.3125 0  0 2.1875 0  1.5625 2.5 0  2.5 1.5625 0  0.7448220909826522 0.3003573636608841 0  1.027298850574712 1.871151477832512 0  1.331260495098891 2.197262878816185 0  1.207917681892289 1.582765010956622 0  0.4339993447432606 1.801186844743261 0  0.6337298768939392 1.443093039772727 0  2.049851190476191 0.6826636904761904 0  0.6584821428571428 2.219122023809524 0  1.89575676467455 0.9798457973793544 0  1.437570562095628 1.059380588255917 0  1.502090052505845 0.6987070896496241 0  0.2040860661083546 1.705323965099331 0  0.2083333333333333 0.46875 0  0.5070952039991439 0.2211150679997147 0  0.6916302856529919 0.5813591430410241 0  2.265625 1.953125 0  2.2265625 2.2265625 0  1.886424081252096 2.243391360417365 0  1.40625 0.202164758520858 0  0.2269345238095238 0.2269345238095238 0  1.152730869673694 0.5225850378741401 0  1.885631899587912 1.312095130148776 0  1.614808884009367 0.9049784971014416 0  1.890095442220658 0.5126535558463003 0  2.323168682795699 0.46875 0  2.268811725689575 0.2304742875213018 0  0.6002389442105756 1.967426444210576 0  0.1768313172043011 2.03125 0  0.2311882743104251 2.269525712478698 0  2.03125 0.176831317204301 0  2.280262553344767 0.6954945504579233 0  1.979219539285994 1.809922269642997 0  2.336309523809524 1.09375 0  1.09375 2.336309523809524 0  0.9314042474388009 1.662973812215543 0  0.1634067999087722 1.40625 0  2.337090640094896 1.40625 0  1.141616997467638 2.069311773587991 0  0.46875 2.338939559681489 0  1.542440307908715 1.734944797244472 0  1.556713687786879 1.956977865354753 0  0.8264238995344066 1.975424467820646 0  1.466326331454725 1.275271369760862 0  1.655675324257095 0.5444159974393489 0  0.3385416666666666 0.6479255698005697 0  0 0.78125 0  0.5236073939200119 0.984090461540625 0  2.091665741047893 1.519793517904215 0  1.71875 2.5 0  0.5356538886262603 1.623137930505009 0  0 1.09375 0  0.1932884281517095 1.015625 0  0.8569313582417669 1.2198915584249 0  0.8876981284879677 0.8329884081524883 0  1.115618488474214 0.7219586973356271 0  1.186950366204949 1.043465130075318 0  2.057459118787237 1.110823087309335 0  1.830651283878689 2.049810069572418 0  1.689107969301489 1.367247437031697 0  0.4921048768039656 1.298643370653124 0  0.8213975694444444 2.336309523809524 0  2.03125 2.5 0  1.049729400480002 1.283723261332814 0  1.308101375801673 0.6489479469700392 0  2.5 2.34375 0  0.4968777175037714 0.7562964879736076 0  1.40625 2.5 0  1.501347663534097 2.307027627307738 0  1.602813712048603 0.1926218191360736 0  0.8393082906308107 0.463778306132633 0  1.682663349152719 1.598471865581041 0  0.7774174680851571 1.560004941327907 0  1.554204170364662 0.3898593897892066 0  1.842184459051087 0.186443880058197 0  1.358107417651776 1.696381759610015 0  1.18859291992392 1.77598670078022 0  0.1875331222687418 0.7609599743339348 0  1.339536743965101 1.422080365801479 0  0.7788179348750389 0.9955343414928611 0  0.9062978492805438 0.1919636509126373 0  1.256007360640958 0.3160320559396114 0  1.09375 0 0  1.174986727221844 0.1594990293443933 0  2.34375 1.796875 0  2.318026474511116 1.589177949022232 0  2.34375 2.5 0  1.672742954892153 2.332882724550692 0  0.2683637361947215 1.874801596909639 0  2.174770749820102 0.5581009131310781 0  1.443279522965991 0.8870068372898454 0  0.3385416666666667 0.3571428571428572 0  0.78125 0 0  2.060421048269335 2.314363248763811 0  1.088078737088509 0.8967352118723447 0  1.087825368444708 1.454931510884769 0  2.018308232129541 0.8548495425854904 0  1.943987311736842 0.3246298523011434 0  1.71875 0 0  1.85337849796276 1.144833312386208 0  2.3486328125 2.1044921875 0  1.407588788651747 2.042968789119587 0  2.336309523809524 0.865366648092144 0  2.34375 0 0  2.5 0.15625 0  0.15625 2.5 0  0 2.34375 0  0.1638044648294291 1.242263417405867 0  0.356216654757926 1.032569427322806 0  0.3188217956111817 1.355736727000647 0  0.5924956460852111 0.36112522004736 0  0.6594216488965849 0.1603472116132387 0  1.841804599497131 1.72214349266521 0  0.15625 0 0  0 0.15625 0  2.115898634821499 1.894570904464496 0  0.7821877980253907 0.7129993435924866 0  1.003820447087786 0.4516053462784233 0  0.477562948779147 1.138333049293613 0  0.719493678605015 1.305655360135975 0  0.9772457618587566 2.020350128938537 0  0.8764738248887107 1.826219722709673 0  1.254787875123819 2.339010653832026 0  2.343597354852534 1.249982759769001 0  0.78125 2.5 0  0.46875 2.5 0  2.5 1.40625 0  1.09375 2.5 0  2.5 0.78125 0  2.5 1.09375 0  2.03125 0 0  2.5 0.46875 0  1.40625 0 0  0.46875 0 0  0 0.46875 0  0 1.40625 0  0 1.71875 0  0 2.03125 0  2.5 1.71875 0  2.5 2.03125 0  2.005424054645407 1.653223486966518 0  0.1538730573856537 1.559850281736677 0  2.33984375 2.33984375 0  1.166539506212474 1.922878979538754 0  0.3914885633949916 1.65887232812171 0  0.5795503163042564 1.766243562569382 0  0.399533125920212 1.946786875081388 0  0.7866324979014098 2.127719094551316 0  0.3654683023546834 0.1495701132219454 0  0.1527388747131078 0.6116379440619215 0  2.013737577140188 1.391056634712135 0  1.17635437372994 2.213329084238133 0  1.737118141866284 1.010577140843115 0  2.200707118087222 1.164723314085963 0  1.697018908736685 1.993548551451517 0  0.5387621649009668 0.6070503962352419 0  2.032805785855952 0.5330427622570983 0  1.082699501358059 1.667818725183932 0  1.503819781540653 0.5468420196858188 0  2.015409142866072 2.175941657590429 0  1.752057611265444 0.869642097111018 0  0.612251684107783 2.356045720700959 0  1.902817102342857 0.6607642211999982 0  2.159616561739693 0.7867739969338844 0  0.5120038350106624 2.197302352398502 0  1.888200216011548 1.919501662489862 0  1.495909909726654 2.16028358757309 0  0.489139876703609 1.443203008943564 0  0.8819175670410521 0.3301172743913011 0  1.882591144370812 0.8155965192707721 0  1.133979796994841 1.172526771862882 0  2.206217447916667 2.084147135416667 0  2.20361328125 2.36279296875 0  1.395746985657004 1.556054166359645 0  1.704383111516207 1.734750450338683 0  0.9575737847222222 2.36274223823052 0  1.035150984253136 0.1302833343179028 0  1.383966125325753 0.7651479963479179 0  1.64003252158672 0.6824316405528895 0  2.22550785055421 1.487078576356817 0  1.760964431499756 1.48495222505201 0  1.276460980673788 2.004207003584658 0  0.1341477688427096 1.828777507920502 0  1.542261434180652 1.155296658359034 0  1.334627911613854 0.9696897472490321 0  1.30794231473696 1.119420615785191 0  0.7028260459857245 0.4438906910721139 0  1.625757433094055 1.84268057552138 0  0.9818707849053143 1.165603626132254 0  2.0086489901463 1.243134585689553 0  1.934584460420609 2.374094051915812 0  1.798434376789567 2.38671361912528 0  1.206314791201715 1.382064292497919 0  0.6333752893366955 0.7023738550008095 0  0.7796219811205605 1.42573253164258 0  1.564399711917382 1.026040828857629 0  0.3385416666666666 0.4889012896825397 0  0.1041666666666667 0.390625 0  0.989112246382566 1.543537365516289 0  2.025724425454636 0.9846960595520872 0  0.6602885475034063 2.086117390485779 0  1.607130551925032 1.267198646640915 0  0.1317864544877056 0.8896173683400176 0  1.755387840017567 2.230364320056445 0  1.301540702984401 0.1216289692748247 0  1.433170657577442 0.3331052752740999 0  1.500459610550388 0.113513924782439 0  0.6494291520606965 1.029586599619295 0  1.010146149868299 0.794897284196169 0  0.3700844198238017 2.235390157870766 0  0.3360891767780704 2.36656279435396 0  1.876856241037701 1.437150669863757 0  1.778674102957329 1.245979347269706 0  0.5472829890977179 0.1005517127039925 0  0.4669074189005698 0.3416784232954367 0  1.472765289289269 1.850899166481903 0  1.555853593327178 1.608452097912802 0  0.6708955559113426 1.646561631116984 0  0.8164699620322933 0.5924479455478063 0  0.3167738989468366 1.758696809749795 0  0.2788007305565096 1.605499483471246 0  0.7821720982350511 0.181524936294752 0  1.376812251214195 2.313340247908297 0  1.785652202614777 0.5962261755537186 0  1.761467296310972 0.4679567244718574 0  2.2265625 1.8359375 0  2.3828125 1.9140625 0  0.5279531607054191 2.071552361614785 0  2.397573269551114 0.234375 0  2.383578172599618 0.3589298466020009 0  0.1024267304488855 2.265625 0  0.1164218274003825 2.141070153397999 0  0.2696857594953064 2.135405441512016 0  2.164961300137334 0.1375322943529536 0  2.137757548369486 0.2724194778647587 0  2.238873711826398 0.3626419179496562 0  0.1001414910226386 0.234375 0  0.2176339285714286 0.3478422619047619 0  0.2503620791333544 0.1061694061057066 0  2.336445461915368 0.1250451055247424 0  0.2154004640409726 2.3918124
[...]
<PointData  Scalars="f_124-1"> 
<DataArray  type="Float64"  Name="f_124-1"  format="ascii">5.8584271754733791e-03  2.7835110712204772e-03  4.7601642412098561e-05  4.9755169473355220e-04  1.6800375742725396e-03  8.9101923955057876e-05  6.2613584223195707e-03  6.2999083421970997e-02  3.3113609383930813e-02  6.4801015284441030e-02  2.7891843517625311e-03  6.4528733214901197e-03  4.0536905967702819e-02  3.1142731226621741e-05  5.5875738807761107e-04  8.3323219172558760e-04  3.8080669738587368e-03  8.0874550089715842e-04  4.8210575997448421e-02  1.0275850237992176e-02  1.0667641752847061e-02  6.1968138494420143e-02  3.6019943927808253e-02  3.5999806357455373e-02  8.6175889617230109e-03  5.9019485398630875e-02  1.5277558528606300e-03  2.1344811712513689e-02  2.1899807431936574e-04  2.4531567666061943e-04  2.5726144912071394e-02  5.8272342789753261e-03  6.4386110635088700e-02  1.6148498058682691e-02  7.3470604615747080e-03  5.7433018169137380e-02  7.6256238236312721e-04  3.8673032394016156e-02  2.7179804323800006e-02  3.6194262440983217e-03  2.1036007217819508e-03  1.1959332126840634e-03  3.1549404060337741e-03  4.1332028128567427e-02  9.4208187876860811e-04  1.6584188052667171e-03  6.3277776261332436e-02  4.9071730971490021e-02  2.0404154216188429e-02  1.0808048506413565e-03  2.2509719158523224e-03  5.6995788834822165e-03  1.8802667603253742e-04  3.3116066710288192e-05  6.4203521098606095e-02  5.7601500064607979e-02  6.2541221303344212e-03  3.6973481278817702e-05  1.9092651243831967e-02  5.3421868915179164e-03  3.8153398375804251e-04  3.5414002547990509e-03  4.0512371532080746e-02  1.7942477902953370e-02  4.7832783476737646e-02  4.7008678709364260e-02  6.0056493706784661e-02  2.9604670784191481e-04  1.7971120017828062e-02  9.3869242586308197e-04  9.9448262154315965e-03  1.6623332329806847e-03  5.2053053561260443e-02  6.2206562727387338e-02  5.6510914067158195e-03  2.3570366537245716e-02  3.1154500125821745e-03  3.0750479957248273e-03  8.4239246138274326e-03  1.3913105640851375e-03  2.6778150487877420e-02  2.5507106504232828e-03  4.4845444653820420e-03  2.4082896259348540e-03  5.0269724497970631e-04  8.0939350086356963e-05  1.1872826759678295e-04  3.5792663973356398e-02  2.9687453488017618e-02  1.4383015760290010e-02  3.2900611138950798e-04  1.0176586339776799e-04  1.0360866965824243e-02  1.2676754230648719e-04  1.1829150378684403e-02  5.1831652880992202e-02  6.1313112931022727e-02  5.4523090338614200e-04  2.7142868170108473e-02  1.1538394824522269e-02  3.1955046834033725e-02  2.6613016023114451e-02  3.5421620213989195e-02  1.9412675674940424e-02  9.7309254540153345e-04  6.2242731897070164e-02  6.4530089349249878e-02  6.2675618948942011e-02  3.4841988994072323e-03  4.8211602592457166e-03  5.5323339739844171e-02  6.3763982879858710e-02  6.4019422590898351e-02  5.6458277159701559e-02  2.9388951346575133e-02  7.5871357641536250e-03  2.3328930095935931e-02  7.3406758986358563e-04  1.4286485243199972e-02  1.2224277748537949e-02  6.2297227041501493e-02  1.1978038304099098e-02  2.7543901894821802e-03  4.8356186454479581e-02  2.4854794687998866e-03  7.4236299077805692e-04  5.8221717198647049e-02  5.8286722822897255e-03  1.1451512057237630e-02  1.0080452147554785e-03  6.1663451676291824e-03  2.1080064971404199e-02  5.6402827207529496e-02  1.1370753339149929e-03  5.6993513923801081e-04  4.1306170233866950e-02  4.3985196369419964e-02  6.4887487696425522e-02  3.6143144252526849e-02  5.1369115377266530e-02  2.3424588117318848e-03  1.7191991303140046e-03  1.9652324663998579e-03  1.8590554095186337e-03  1.7438754536488797e-03  1.2589670142125311e-03  9.3102963788419923e-04  9.1912686544068731e-03  4.2018905848018415e-02  1.6563683154940140e-04  4.4179865620217603e-03  3.9990535762700945e-02  2.5106394666554893e-03  4.4046345393234636e-03  1.9225923729928217e-02  5.1645421169402350e-02  3.9131754591533808e-04  4.2516992536817931e-04  8.1421545761980693e-04  2.4321351354888569e-03  2.0557332153696619e-03  2.5771922278030508e-02  7.7474229248682494e-05  9.9061337307241267e-05  4.3664143592378812e-05  5.8128532900795478e-03  1.0146136339546877e-02  6.2975382808894295e-02  6.4043588276506233e-02  6.1862533174101751e-02  1.0529607969507962e-02  2.8893101426368966e-03  1.5287745993227336e-02  2.6339784935827627e-03  1.5901017374957728e-02  6.2184237417920235e-03  2.7561067959272517e-02  3.1348624537428258e-03  6.3457499761572486e-02  6.1057920794635755e-02  3.1787714105294178e-02  4.4460217433219811e-02  1.1598763279894952e-02  2.3763648633120027e-04  6.3012684925712829e-03  5.8460510429658120e-03  1.8789504705045369e-04  6.2738212365511204e-03  3.2248470803972156e-05  4.6172359191472597e-05  3.5017302014160644e-04  3.2506515711082986e-05  1.3551356983807709e-03  3.0739834349614819e-03  6.2549847571760964e-02  6.1345227158439944e-02  5.1105762435504874e-02  3.0305575299269097e-02  6.2632717679757363e-04  9.4829212115256530e-04  7.3827476783411335e-03  5.7676081283791543e-02  1.4777476865933841e-03  3.6383029470385797e-02  5.4576765008582780e-02  4.8650420674284593e-02  3.7134718126685590e-02  2.4521423100559117e-02  6.5349280026211877e-03  6.5701510865011803e-02  3.3471264240320813e-03  1.8488326899473405e-02  2.2460761829303736e-03  3.8883607072719449e-04  2.0751142647661730e-02  4.3455348603023504e-02  3.1391832416934387e-04  5.0000822810528103e-02  1.3000887573291794e-03  7.0359424887191657e-03  1.1608534524649914e-03  1.0801260632883294e-02  5.0640949973637856e-04  1.9277924836580917e-04  1.9379549940242793e-02  1.4247750608451551e-02  1.8263603488116897e-02  6.0336083705043474e-02  2.8518972398004017e-03  5.9986105530969263e-04  3.6617221717124719e-02  4.0701402137327102e-03  2.2743753538186540e-03  3.7446492156289042e-02  2.2706209632260516e-02  1.0597942820528908e-02  2.1058989764636852e-03  3.1438723216078586e-03  1.0865297454017385e-03  1.5575691978382455e-03  1.3515250163940546e-02  3.0328168420434135e-02  4.5108045310627391e-02  9.8025453921773455e-03  9.9890745589037641e-03  1.9966224522321708e-02  1.0843528754778408e-02  2.7056136179428904e-02  4.7158516827290810e-02  1.8857041984988339e-03  5.1346200234768562e-03  6.2801216215701240e-03  4.3380334669091865e-02  4.2642319925024021e-02  5.9523810462747941e-02  5.1874518152779979e-03  5.4318213156792326e-02  5.2347120408284750e-02  5.4789707797663220e-02  5.0094643189216705e-04  2.6852675758481492e-02  1.1846111258624295e-02  6.4362452865081743e-02  1.1549698506946600e-02  1.5903839194198967e-03  1.3723521252339964e-03  1.1954917473727133e-03  5.9945867274325895e-02  1.7031666275791158e-02  1.6850591331244932e-02  9.7938588610443165e-03  7.2859387057299298e-03  5.5485291319055637e-03  3.0337373096759337e-03  1.9112320109827993e-02  3.3417879887130915e-02  2.8893270142096691e-02  5.3802021585350100e-02  1.5206454369884834e-02  4.9426409242836193e-02  5.6439946144896537e-02  2.6109277941574207e-03  1.1925497668597074e-02  7.1494476328372509e-04  7.2592311447346365e-04  3.6150306896158353e-03  1.5901530754335869e-03  2.8053477788691585e-02  6.0052034152727433e-05  6.2881599565566313e-05  1.4685129312391821e-02  2.2779064454169783e-02  2.2992399648644319e-02  1.9778438602531892e-04  2.1572716221739227e-04  1.3751261825967629e-04  2.7371603919090073e-02  4.6569566891954385e-02  7.5137904265775383e-03  8.9917724212579608e-05  8.6718107553959561e-03  1.8245037559957104e-02  1.0931274793700456e-02  7.9420454685818099e-04  5.2226175942907257e-03  2.0042300286137920e-03  1.9350079644250198e-03  3.3616117180062390e-02  1.9242388708198783e-02  5.7855252146055532e-02  3.6368874601832718e-02  4.6035126704635981e-04  6.2201753251250094e-05  5.6831343970667289e-05  1.5033522260387510e-03  2.3050709194139030e-02  4.0450710605395040e-02  4.0936313930141716e-02  2.1451180840324491e-03  2.8368696590682064e-03  2.0196125894548209e-02  5.7916415237711837e-04  6.2542867790860712e-02  5.1824201690439706e-02  4.6598272254896773e-02  1.7746741429576791e-04  2.4017633718356520e-03  2.2458928498139319e-04  2.2882284594812317e-02  6.3547395969173665e-02  6.7546445549750597e-05  6.4814018773430557e-02  6.2205241828479786e-02  6.4001531588342327e-03  1.0109294005037977e-02  3.7459679745178060e-04  8.3898011210669626e-03  6.0342198267034242e-02  6.2357165899970451e-02  4.2901880757767957e-04  6.4971630881658336e-04  4.9683818165056758e-02  9.4168462099234612e-04  1.2974315834484156e-03  1.0450523429101233e-02  6.6846300863741663e-04  7.8056428480319121e-04  2.1038513519406481e-02  1.6713034426130702e-02  9.0150579386535749e-03  5.5612196698841494e-02  6.4566283233384217e-02  5.2596535802928189e-02  6.3380258837630446e-02  9.3480418801745958e-04  5.4887175745698930e-02  6.3403496137856855e-02  2.0346927997450252e-04  9.5850419489623538e-05  7.8635399482098502e-03  8.2959188761641631e-03  8.0980232804264663e-04  6.4857776412761969e-03  1.9437497040019358e-03  1.6399904131792233e-03  2.6769423442479412e-03  1.1640836933238447e-03  1.6200641994419195e-02  2.8476928432250581e-02  3.8258333827391057e-02  2.9422665372500521e-02  6.0007741358438102e-02  1.6082131425291607e-02  5.0286954018477917e-03  3.5904146592982696e-02  3.6563574806628342e-02  1.4707999082344164e-02  7.2349201712820100e-03  5.8215714826805515e-02  2.0010872589986826e-02  3.7898130562482167e-02  2.9205062520548219e-02  4.1605235107277549e-04  5.9224018547882444e-02  4.5386404619141979e-02  5.1731075499968693e-02  3.4298314857416787e-02  2.4756072419793815e-02  1.2484755210379235e-04  5.6546497346349027e-02  1.7818800715977293e-03  4.5363342670370344e-03  1.7652422538581111e-02  6.4420769560904700e-02  4.0479009029812670e-02  5.0310097199945591e-03  2.8591215981418523e-02  9.4790118592763507e-04  1.8973197386179044e-03  5.3738993401819306e-02  6.6163652160399558e-02  6.4073084447092241e-02  1.0194802278382996e-03  3.7217225276001809e-04  4.2571409993495957e-02  8.8342391723837612e-04  8.2285554971240071e-03  5.7294537584419700e-02  5.7874021639355795e-02  6.5287191128458112e-05  3.4714482663864080e-03  5.1163843436960342e-03  1.0099055115179376e-02  1.6057087389952210e-04  5.1941557136768214e-02  5.7861230247046938e-02  8.0111561116061776e-03  5.6044494840265129e-02  6.2775528295400340e-02  6.0666119544882839e-03  4.1069359843168340e-02  3.1037146407596451e-02  1.4784550641105985e-02  1.3914342807802321e-02  6.1409795720804086e-02  6.3018690855539461e-02  4.3337730685967295e-02  1.7941240050117015e-02  1.7803815670767355e-02  1.2028113573553845e-02  2.6357025800449905e-03  4.7632444868910065e-02  8.3080374840997541e-03  1.3691040848561613e-02  3.1446787688191091e-04  1.6849158904267527e-03  3.3050554562867644e-02  1.3898269036111866e-03  2.3195274599155297e-02  2.5988768029490982e-03  1.0690014169636380e-04  5.0537479465464399e-02  2.8234410210304508e-02  6.2213985913877300e-04  1.3957351161108997e-03  5.1709908928474671e-02  2.6559003962812883e-02  1.9903742921410900e-03  2.3003806979040777e-03  1.3902982187758049e-04  4.7517987176348725e-02  6.3753323932869255e-02  1.5191891560761761e-02  2.0154567883294366e-03  1.3854542443666931e-04  6.1245758724916199e-03  1.0753861528490033e-02  6.2004894743601484e-02  4.7996043232277082e-02  6.4556611443545339e-02  3.6834841460357995e-02  1.1689120760780846e-03  6.2713116278323891e-02  2.5551258730981206e-04  2.9036348327157030e-04  6.1559976321404079e-02  1.4995266886134754e-02  6.3867546358305397e-02  1.1113124880362689e-03  6.5113716540091154e-02  4.3207211953102861e-04  5.0867748033363250e-03  7.7070581570410600e-03  1.8875044982958535e-03  1.5633387493720436e-03  1.5358151926614313e-03  4.1424329544164855e-02  3.8640591799358477e-02  4.3781038336961023e-02  3.8534167938374785e-03  5.7339760030117211e-03  6.1836289659692387e-03  3.5141458392936860e-03  1.4296376569745214e-02  6.2859792128395028e-02  5.1035851277316472e-03  1.2617130314246616e-02  2.0192838166402630e-03  6.0751622681571235e-02  2.3373730745189024e-02  5.8303050214177525e-02  1.3218492793504474e-03  4.8508465639847294e-03  4.0673210609092009e-03  3.1960927543434026e-05  8.6590572958710355e-04  2.6353595416284577e-03  1.1394805773993703e-02  3.9261765707917506e-02  6.0897810789611317e-03  3.7397654214620492e-04  5.9471290122726722e-03  2.7442919154246084e-02  3.1540477692621497e-03  3.0819380330173765e-05  4.9560386573064913e-05  8.5623582578489357e-03  2.2453095691976968e-03  4.4586792423850774e-02  4.7243916376914871e-02  1.2343325818369650e-03  3.8040135552964236e-03  2.4561954838523618e-03  2.3068707132665185e-02  5.0175904649009343e-03  6.3712477435797471e-02  1.3630623113872172e-03  4.6149639581143195e-02  3.4322010619338345e-02  7.8395848885810891e-03  8.4849075893385743e-03  1.9579964195056252e-03  2.6783152507961826e-03  2.4354131963827783e-02  9.3806599296444504e-05  1.9152972205158113e-02  4.1262390123638977e-02  3.1395551994516835e-03  1.6861583106713152e-03  1.1280329227576475e-02  3.0353578962911756e-02  5.3180859133784529e-03  2.3288789624939041e-04  1.7490534773074056e-03  3.1921644611529819e-05  3.2554530027007340e-04  2.9448109385267056e-04  5.6697320654508206e-04  1.1583870052447682e-03  2.4301317758150445e-03  1.0158330904695612e-03  4.6472605085458760e-05  2.2322812151862451e-02  2.2268106956025105e-04  6.3725574283859387e-02  6.3690618915081695e-02  3.0887408676795827e-03  1.2433791426544057e-02  6.3377732553208787e-03  8.1354135107614186e-03  1.3630681249322610e-03  2.8611559325949555e-03  6.3313033876241038e-03  7.0143241642495842e-03  9.3226310311218742e-05  1.9436047151683275e-02  4.8684660317860749e-02  3.3443265765741030e-03  1.0221687059444711e-02  1.3562680622956440e-02  1.3570163003329407e-04  3.6514796706121136e-02  5.4480892162006841e-02  3.5990528294115191e-02  4.0645639834727888e-02  5.9729636503936089e-05  1.5977549971129542e-02  6.4363279123535538e-02  4.7567271446496086e-05  1.1476908042911455e-02  1.1822856251515960e-03  8.8776464423867259e-04  2.0977548691444636e-02  1.0713759059755986e-03  3.2245386107979432e-02  8.5355884889394551e-03  1.4164563833952608e-03  6.4708082736672792e-02  5.8412528717717738e-02  4.4439280056443445e-02  3.9481835186062615e-04  4.8213888939287151e-05  4.7507555575418060e-02  2.3481044490609997e-02  3.3828723574881514e-03  1.4554273137961015e-03  9.0040976342311825e-04  3.5912933194683902e-02  6.4183194473571001e-02  6.1251993602670071e-02  2.7424421008413597e-02  6.2611510949691113e-02  1.6696807277951854e-02  2.5155524998401717e-03  9.7804669393137915e-04  7.6266551918101420e-04  1.8732401468009207e-02  6.1883398726567791e-02  6.5730199862160388e-03  2.8244980940690520e-03  3.2945153637095174e-03  2.1786720908079739e-02  8.8349015254945099e-03  6.9909940480687277e-05  3.7861544020035965e-05  4.2417100340053443e-02  5.4750127403396617e-02  1.2996950308866695e-02  6.0670299617762699e-02  4.1220586235723104e-02  1.9498925779792006e-02  2.1066455407775644e-04  2.1210030467334485e-03  4.3586480992865032e-03  1.1956513711760689e-04  2.9043198833414736e-03  3.1452670568235599e-02  5.1878529274811342e-03  1.3677009385098976e-02  7.5767555528450381e-03  2.4505954050052124e-03  1.4286342582497584e-02  1.1613481685423258e-02  2.7498355968871594e-03  3.6897081988533620e-03  7.2588525186354702e-03  1.5123821606459692e-03  2.0360599392992992e-03  2.0457074803685190e-02  2.3752892416530450e-02  4.4617006529210085e-05  2.9865527191833659e-02  3.9036188038735001e-02  1.8782961867412063e-03  5.3452881735947663e-03  5.4234778677631795e-02  2.2232298555917651e-03  3.3796016606523708e-03  3.8901478612926848e-03  1.6354888141335372e-04  3.1082710084072868e-04  2.1863662024133087e-03  4.4524277763463712e-04  5.9457210840509873e-02  5.2934871764356205e-02  2.2429449795815605e-02  2.9926020594124216e-02  4.2273159555014386e-02  9.7118638325706611e-03  7.9598667915843147e-04  2.5331805766967842e-02  5.0908850592605158e-02  3.8556353311921636e-02  5.4059240589450714e-03  3.6085741234513424e-04  1.3856333326546524e-04  2.3941279323223180e-02  6.2994473541722593e-02  7.5616484130286224e-03  5.6748955255044476e-04  1.8168069688045726e-03  1.2246821154464570e-03  6.3367052141133223e-03  2.2110346803796777e-03  7.5639186329758551e-03  5.9381205834019108e-03  5.9638661173411099e-03  5.4855979306679702e-02  6.4418405810631732e-03  5.1596791952627748e-04  6.6596495053141823e-04  9.5016732410004294e-04  6.1127352070570071e-05  1.2585292494222749e-04  2.7544403248311251e-04  6.4003020285226087e-02  6.3425306040356663e-02  6.2391142763246775e-02  6.2816761328804748e-03  6.4711682756834504e-02  2.3781090954999571e-03  4.5060167685802126e-04  3.6001662401594581e-02  5.7197585088056002e-03  3.0011978854152144e-03  1.3859474274310861e-02  3.9619477904662426e-05  2.9518296084593246e-03  1.2318243098367533e-03  2.9153035976255567e-02  5.2374647848171085e-02  4.3296408540773341e-03  8.4567972064599666e-04  6.1253351015899845e-04  6.4888909647068673e-04  5.9604836701002743e-02  5.4836059128891314e-03  6.4788669865092852e-02  7.4257000502730161e-04  9.7714058863441425e-04  3.4475427119132073e-05  5.3417459903851757e-04  1.8675192271808409e-02  5.2606743422543345e-02  8.1070241042679771e-03  1.5006407730523211e-03  8.3540032753187457e-03  2.9819653526797728e-02  5.1591825867742247e-02  4.1571571440801820e-02  2.8090683559797627e-03  3.2022436916087278e-03  4.5033571592284820e-02  6.5407812670795804e-02  3.1422432718993934e-02  5.9801232461851268e-02  3.4264502135828239e-03  2.6829629372230018e-02  6.0057433485477714e-02  5.7859472747374983e-02  5.5691677705427024e-02  6.2233516017211263e-02  6.5205898841637300e-02  6.5442885768553907e-02  2.2914326380553621e-04  2.9457499073474044e-02  3.6373343517979974e-02  6.7570384351062728e-04  5.0512591513944376e-02  3.2214890571360667e-04  5.8540027286509248e-02  2.8951064742193409e-02  4.1850344646296271e-02  6.4261038622326516e-02  3.4931297128770425e-02  3.3661112701508483e-02  1.3957602205496105e-03  5.7373358520789314e-02  5.1518203668300760e-02  4.5983129520400079e-04  1.2714932881352834e-04  6.1170105143791148e-02  2.1175402543487258e-04  1.4127155162165910e-04  5.8201014854352473e-02  3.7607708510413824e-03  1.5956187080255303e-02  8.1693439030139682e-03  1.8996780907933917e-02  2.1032375808543789e-03  5.2955699889808250e-02  5.0282416249199692e-02  1.8524078985027396e-02  4.6832844932370703e-03  3.0619007237060723e-03  3.1837193683034062e-03  2.0448782871765412e-03  2.2738026363072594e-02  6.1378134400463948e-02  2.7680022160055322e-02  4.7943525098386022e-02  4.5225364229816538e-03  4.2455650395354275e-02  3.9766186895951246e-02  9.9314190665550622e-03  6.4532309651648698e-03  6.6019127911166105e-04  5.5217684706820890e-04  2.7964933655794812e-02  3.2071255246449319e-02  5.7007494581680876e-02  5.5700700217542171e-02  5.1223320801421474e-02  2.2436544724834064e-02  1.8271540958212241e-04  1.5664829415852885e-02  1.4676849151728722e-02  1.8254446884966670e-02  2.0504180699992387e-02  1.5866338342874355e-02  1.0668170605866010e-02  2.1369330196297304e-02  1.3105368244185516e-03  1.8079449968449815e-03  5.2291576318871462e-05  1.1245070563077888e-03  4.8518289173566015e-02  5.9989045780203955e-02  6.3170052685850270e-02  1.4740733963895178e-02  3.6770189488451936e-04  2.8501759671517295e-02  1.5306489621876368e-03  8.5162544501892062e-03  6.2035595612833644e-02  4.9617530571493651e-04  7.6910219478574810e-03  8.1508384248652910e-03  1.3762726334848468e-03  2.2966787684659782e-04  7.3964820728833437e-03  6.0449463283864815e-02  4.0369815318910249e-02  2.2391531104655294e-02  6.2369099942075380e-02  2.3259329683269027e-02  1.7263041772557480e-02  4.4628750691092067e-02  8.7061817482611713e-05  2.0533940750342887e-03  4.9621304022311144e-02  6.0207938775323259e-02  6.1458050207357874e-02  1.4250812872356102e-02  8.0962525234360237e-03  3.9848565535587511e-04  7.0701514119033641e-03  4.0092083559926088e-04  1.1466773197796986e-04  3.2215833845089287e-03  2.4522964816189839e-02  1.0856626194423499e-03  2.1052673290116717e-03  2.6469811742049385e-04  2.7423458888172905e-02  1.3537846322393382e-02  1.7708560189327621e-02  2.1975517930234230e-02  1.2592027453256030e-02  1.04765553383