<?xml version="1.0"?>
<VTKFile type="UnstructuredGrid"  version="0.1"  >
<UnstructuredGrid>
<Piece  NumberOfPoints="6486" NumberOfCells="12696">
<Points>
<DataArray  type="Float64"  NumberOfComponents="3"  format="ascii">0 2.5 0  0 0 0  2.5 0 0  2.5 2.5 0  1.25 0 0  2.5 1.25 0  1.25 2.5 0  0 1.25 0  1.25 1.25 0  0 0.625 0  0.625 0 0  0.625 2.5 0  0 1.875 0  2.5 0.625 0  1.875 0 0  2.5 1.875 0  1.875 2.5 0  1.770833333333333 0.7291666666666666 0  0.7291666666666666 1.770833333333333 0  0.9375 0.625 0  1.875 1.5625 0  0.642361111111111 1.163194444444444 0  1.341594827586207 1.883979885057471 0  0.46875 0.46875 0  2.03125 2.03125 0  0.3626104797979798 1.513178661616162 0  1.381740196078431 0.4564950980392157 0  0.9375 2.172619047619047 0  2.172619047619047 0.9375 0  2.096354166666667 0.4036458333333332 0  0.4036458333333333 2.096354166666667 0  1.684027777777778 1.163194444444444 0  0.3418803418803419 0.8693910256410255 0  1.642742622813391 2.162164207604464 0  1.275619849389031 0.8465650753054845 0  0.9136284722222221 1.434461805555556 0  1.732437511238546 0.3406962303960658 0  0.9714402568595876 1.029779313093998 0  1.52281746031746 1.485615079365079 0  2.1875 1.71875 0  1.06819722569879 0.2997236128493951 0  2.136114211309524 1.303478422619048 0  0.3125 0 0  0 0.3125 0  2.5 2.1875 0  2.1875 2.5 0  0.3200021620376328 1.192323085056694 0  0.6738456129277992 0.8304377375553881 0  1.757891808928991 1.861952730357003 0  1.5625 0 0  0.9375 0 0  0.3125 2.5 0  2.1875 0 0  2.5 0.9375 0  0 0.9375 0  0 1.5625 0  0.9375 2.5 0  2.5 0.3125 0  0 2.1875 0  1.5625 2.5 0  2.5 1.5625 0  0.7448220909826522 0.3003573636608841 0  1.027298850574712 1.871151477832512 0  1.331260495098891 2.197262878816185 0  1.207917681892289 1.582765010956622 0  0.4339993447432606 1.801186844743261 0  0.6337298768939392 1.443093039772727 0  2.049851190476191 0.6826636904761904 0  0.6584821428571428 2.219122023809524 0  1.89575676467455 0.9798457973793544 0  1.437570562095628 1.059380588255917 0  1.502090052505845 0.6987070896496241 0  0.2040860661083546 1.705323965099331 0  0.2083333333333333 0.46875 0  0.5070952039991439 0.2211150679997147 0  0.6916302856529919 0.5813591430410241 0  2.265625 1.953125 0  2.2265625 2.2265625 0  1.886424081252096 2.243391360417365 0  1.40625 0.202164758520858 0  0.2269345238095238 0.2269345238095238 0  1.152730869673694 0.5225850378741401 0  1.885631899587912 1.312095130148776 0  1.614808884009367 0.9049784971014416 0  1.890095442220658 0.5126535558463003 0  2.323168682795699 0.46875 0  2.268811725689575 0.2304742875213018 0  0.6002389442105756 1.967426444210576 0  0.1768313172043011 2.03125 0  0.2311882743104251 2.269525712478698 0  2.03125 0.176831317204301 0  2.280262553344767 0.6954945504579233 0  1.979219539285994 1.809922269642997 0  2.336309523809524 1.09375 0  1.09375 2.336309523809524 0  0.9314042474388009 1.662973812215543 0  0.1634067999087722 1.40625 0  2.337090640094896 1.40625 0  1.141616997467638 2.069311773587991 0  0.46875 2.338939559681489 0  1.542440307908715 1.734944797244472 0  1.556713687786879 1.956977865354753 0  0.8264238995344066 1.975424467820646 0  1.466326331454725 1.275271369760862 0  1.655675324257095 0.5444159974393489 0  0.3385416666666666 0.6479255698005697 0  0 0.78125 0  0.5236073939200119 0.984090461540625 0  2.091665741047893 1.519793517904215 0  1.71875 2.5 0  0.5356538886262603 1.623137930505009 0  0 1.09375 0  0.1932884281517095 1.015625 0  0.8569313582417669 1.2198915584249 0  0.8876981284879677 0.8329884081524883 0  1.115618488474214 0.7219586973356271 0  1.186950366204949 1.043465130075318 0  2.057459118787237 1.110823087309335 0  1.830651283878689 2.049810069572418 0  1.689107969301489 1.367247437031697 0  0.4921048768039656 1.298643370653124 0  0.8213975694444444 2.336309523809524 0  2.03125 2.5 0  1.049729400480002 1.283723261332814 0  1.308101375801673 0.6489479469700392 0  2.5 2.34375 0  0.4968777175037714 0.7562964879736076 0  1.40625 2.5 0  1.501347663534097 2.307027627307738 0  1.602813712048603 0.1926218191360736 0  0.8393082906308107 0.463778306132633 0  1.682663349152719 1.598471865581041 0  0.7774174680851571 1.560004941327907 0  1.554204170364662 0.3898593897892066 0  1.842184459051087 0.186443880058197 0  1.358107417651776 1.696381759610015 0  1.18859291992392 1.77598670078022 0  0.1875331222687418 0.7609599743339348 0  1.339536743965101 1.422080365801479 0  0.7788179348750389 0.9955343414928611 0  0.9062978492805438 0.1919636509126373 0  1.256007360640958 0.3160320559396114 0  1.09375 0 0  1.174986727221844 0.1594990293443933 0  2.34375 1.796875 0  2.318026474511116 1.589177949022232 0  2.34375 2.5 0  1.672742954892153 2.332882724550692 0  0.2683637361947215 1.874801596909639 0  2.174770749820102 0.5581009131310781 0  1.443279522965991 0.8870068372898454 0  0.3385416666666667 0.3571428571428572 0  0.78125 0 0  2.060421048269335 2.314363248763811 0  1.088078737088509 0.8967352118723447 0  1.087825368444708 1.454931510884769 0  2.018308232129541 0.8548495425854904 0  1.943987311736842 0.3246298523011434 0  1.71875 0 0  1.85337849796276 1.144833312386208 0  2.3486328125 2.1044921875 0  1.407588788651747 2.042968789119587 0  2.336309523809524 0.865366648092144 0  2.34375 0 0  2.5 0.15625 0  0.15625 2.5 0  0 2.34375 0  0.1638044648294291 1.242263417405867 0  0.356216654757926 1.032569427322806 0  0.3188217956111817 1.355736727000647 0  0.5924956460852111 0.36112522004736 0  0.6594216488965849 0.1603472116132387 0  1.841804599497131 1.72214349266521 0  0.15625 0 0  0 0.15625 0  2.115898634821499 1.894570904464496 0  0.7821877980253907 0.7129993435924866 0  1.003820447087786 0.4516053462784233 0  0.477562948779147 1.138333049293613 0  0.719493678605015 1.305655360135975 0  0.9772457618587566 2.020350128938537 0  0.8764738248887107 1.826219722709673 0  1.254787875123819 2.339010653832026 0  2.343597354852534 1.249982759769001 0  0.78125 2.5 0  0.46875 2.5 0  2.5 1.40625 0  1.09375 2.5 0  2.5 0.78125 0  2.5 1.09375 0  2.03125 0 0  2.5 0.46875 0  1.40625 0 0  0.46875 0 0  0 0.46875 0  0 1.40625 0  0 1.71875 0  0 2.03125 0  2.5 1.71875 0  2.5 2.03125 0  2.005424054645407 1.653223486966518 0  0.1538730573856537 1.559850281736677 0  2.33984375 2.33984375 0  1.166539506212474 1.922878979538754 0  0.3914885633949916 1.65887232812171 0  0.5795503163042564 1.766243562569382 0  0.399533125920212 1.946786875081388 0  0.7866324979014098 2.127719094551316 0  0.3654683023546834 0.1495701132219454 0  0.1527388747131078 0.6116379440619215 0  2.013737577140188 1.391056634712135 0  1.17635437372994 2.213329084238133 0  1.737118141866284 1.010577140843115 0  2.200707118087222 1.164723314085963 0  1.697018908736685 1.993548551451517 0  0.5387621649009668 0.6070503962352419 0  2.032805785855952 0.5330427622570983 0  1.082699501358059 1.667818725183932 0  1.503819781540653 0.5468420196858188 0  2.015409142866072 2.175941657590429 0  1.752057611265444 0.869642097111018 0  0.612251684107783 2.356045720700959 0  1.902817102342857 0.6607642211999982 0  2.159616561739693 0.7867739969338844 0  0.5120038350106624 2.197302352398502 0  1.888200216011548 1.919501662489862 0  1.495909909726654 2.16028358757309 0  0.489139876703609 1.443203008943564 0  0.8819175670410521 0.3301172743913011 0  1.882591144370812 0.8155965192707721 0  1.133979796994841 1.172526771862882 0  2.206217447916667 2.084147135416667 0  2.20361328125 2.36279296875 0  1.395746985657004 1.556054166359645 0  1.704383111516207 1.734750450338683 0  0.9575737847222222 2.36274223823052 0  1.035150984253136 0.1302833343179028 0  1.383966125325753 0.7651479963479179 0  1.64003252158672 0.6824316405528895 0  2.22550785055421 1.487078576356817 0  1.760964431499756 1.48495222505201 0  1.276460980673788 2.004207003584658 0  0.1341477688427096 1.828777507920502 0  1.542261434180652 1.155296658359034 0  1.334627911613854 0.9696897472490321 0  1.30794231473696 1.119420615785191 0  0.7028260459857245 0.4438906910721139 0  1.625757433094055 1.84268057552138 0  0.9818707849053143 1.165603626132254 0  2.0086489901463 1.243134585689553 0  1.934584460420609 2.374094051915812 0  1.798434376789567 2.38671361912528 0  1.206314791201715 1.382064292497919 0  0.6333752893366955 0.7023738550008095 0  0.7796219811205605 1.42573253164258 0  1.564399711917382 1.026040828857629 0  0.3385416666666666 0.4889012896825397 0  0.1041666666666667 0.390625 0  0.989112246382566 1.543537365516289 0  2.025724425454636 0.9846960595520872 0  0.6602885475034063 2.086117390485779 0  1.607130551925032 1.267198646640915 0  0.1317864544877056 0.8896173683400176 0  1.755387840017567 2.230364320056445 0  1.301540702984401 0.1216289692748247 0  1.433170657577442 0.3331052752740999 0  1.500459610550388 0.113513924782439 0  0.6494291520606965 1.029586599619295 0  1.010146149868299 0.794897284196169 0  0.3700844198238017 2.235390157870766 0  0.3360891767780704 2.36656279435396 0  1.876856241037701 1.437150669863757 0  1.778674102957329 1.245979347269706 0  0.5472829890977179 0.1005517127039925 0  0.4669074189005698 0.3416784232954367 0  1.472765289289269 1.850899166481903 0  1.555853593327178 1.608452097912802 0  0.6708955559113426 1.646561631116984 0  0.8164699620322933 0.5924479455478063 0  0.3167738989468366 1.758696809749795 0  0.2788007305565096 1.605499483471246 0  0.7821720982350511 0.181524936294752 0  1.376812251214195 2.313340247908297 0  1.785652202614777 0.5962261755537186 0  1.761467296310972 0.4679567244718574 0  2.2265625 1.8359375 0  2.3828125 1.9140625 0  0.5279531607054191 2.071552361614785 0  2.397573269551114 0.234375 0  2.383578172599618 0.3589298466020009 0  0.1024267304488855 2.265625 0  0.1164218274003825 2.141070153397999 0  0.2696857594953064 2.135405441512016 0  2.164961300137334 0.1375322943529536 0  2.137757548369486 0.2724194778647587 0  2.238873711826398 0.3626419179496562 0  0.1001414910226386 0.234375 0  0.2176339285714286 0.3478422619047619 0  0.2503620791333544 0.1061694061057066 0  2.336445461915368 0.1250451055247424 0  0.2154004640409726 2.3918124
[...]
<PointData  Scalars="f_124-1"> 
<DataArray  type="Float64"  Name="f_124-1"  format="ascii">6.6406168062323037e-02  7.4776648942313671e-03  4.4448208164083684e-03  3.4892004618591571e-02  6.3874913607269903e-03  4.4610554367399665e-03  6.6384313166722692e-02  6.8518746707243477e-02  3.8577730405989899e-02  6.9496589861613181e-02  7.4833655492325098e-03  6.6441964367852019e-02  6.7434003705883039e-02  4.3285305847547183e-03  5.3542927891115167e-03  1.0270017533717039e-02  6.1144009866782631e-02  5.5993306704253260e-03  6.7613017210663776e-02  1.4971313896481724e-02  1.9495020691046968e-02  6.7164441546928258e-02  6.2721041011637196e-02  4.0694044162097473e-02  3.6666976741101934e-02  6.8080647598601593e-02  6.2467963885946779e-03  6.6950907520150177e-02  4.8813449372644155e-03  4.9633656832786966e-03  6.7073672832139122e-02  1.0868107285689764e-02  6.9114710792535367e-02  6.0622034730364927e-02  1.2063781599876693e-02  6.5117689301691345e-02  5.5514373465525924e-03  4.3477653905048763e-02  3.5545141895926391e-02  1.3530108645749477e-02  6.8002411369538279e-03  6.3032114142954256e-03  7.8490943499516640e-03  4.6026190440201502e-02  2.1303830771885104e-02  5.0116294449546822e-02  6.8612909923926949e-02  5.3780889151009315e-02  4.3070095692269918e-02  5.8390404334608499e-03  6.9459527931332778e-03  6.6396307343527569e-02  4.8617324602558253e-03  4.3140493372134806e-03  6.8988656567544299e-02  6.8002549314264332e-02  6.6440100354502249e-02  4.3801981270761622e-03  6.6899563025558342e-02  6.5529653445740951e-02  5.6206867802913356e-03  8.2356313174687043e-03  6.6961724331000269e-02  6.6086705532892864e-02  5.9182412001594367e-02  6.7604085698024785e-02  6.8056678113809221e-02  5.0317606713320834e-03  6.6871074080214268e-02  5.7580578000802577e-03  1.4767057581273507e-02  6.4024453518974943e-03  6.7763875306819515e-02  6.6900808281825139e-02  1.0345247673652929e-02  2.8264939104259843e-02  1.9721362160582092e-02  3.6043762664571669e-02  5.4301119150937653e-02  6.1183069875749155e-03  3.1472305750270255e-02  7.2496850105199439e-03  1.0021639694596457e-02  7.1864061353616214e-03  5.2914015007434886e-03  4.5839261865142601e-03  4.7044306512870849e-03  6.7316222771988482e-02  6.7170449335790319e-02  6.6759985168614006e-02  5.0881050557606868e-03  4.6450138951913593e-03  2.7067898187814847e-02  4.6292609864387619e-03  6.6648877497462455e-02  6.6953319564221445e-02  6.8266363843504221e-02  5.5534661708705902e-03  6.6754717590162535e-02  6.6661966853117635e-02  4.8988685210319204e-02  5.7682604546854713e-02  6.7289905018342464e-02  2.4920284395400217e-02  5.7442233739315209e-03  6.6938379013866456e-02  6.9245813508369447e-02  6.7475860976469293e-02  1.0315153856492490e-02  6.3987161765660994e-02  6.7886976879405231e-02  6.8749917389876347e-02  6.8891144482424393e-02  6.1841266293566489e-02  3.4095483053729773e-02  1.2286908871394756e-02  2.8148755818616224e-02  5.5636589214036747e-03  4.8406134297916334e-02  1.8374053881461811e-02  6.8391013808093148e-02  6.6683448033543632e-02  5.6224776800916018e-02  5.4241146090737248e-02  7.1954485773247524e-03  2.8578534564039974e-02  6.2922789888378169e-02  6.6164961344415338e-02  6.5264925341281185e-02  5.7742934730978350e-03  1.0860763409610003e-02  3.1968654442320367e-02  6.7651798375837138e-02  5.8894315081663672e-03  5.3646908035434263e-03  5.6740299075073192e-02  6.4498661517351771e-02  6.9593209336605469e-02  4.3367680704441719e-02  5.6159042203344854e-02  7.0371958881282415e-03  6.4251856266365724e-03  6.6633098277259226e-03  6.5595805048139760e-03  1.1412223249186412e-02  7.6712905562914052e-03  4.1940273472554419e-02  6.3075358059463835e-02  6.7470405174977086e-02  4.8115527718341549e-03  9.1599541613687357e-03  4.4684703698151008e-02  7.2049723502726369e-03  4.9306264407381527e-02  2.3945313160566167e-02  5.9736211657342206e-02  5.1501759419324269e-03  5.2065820958192722e-03  5.5995757603709527e-03  7.4083094445208473e-03  2.3258569563078122e-02  6.3977637390780273e-02  4.5455977473753024e-03  4.6507423458834159e-03  4.4237595362150734e-03  6.6403549794021507e-02  6.6605834332501945e-02  6.8513528762528420e-02  6.8915796434569687e-02  6.8336278625386160e-02  1.5223782516625406e-02  7.5834948939116935e-03  2.9924018473371370e-02  7.3281323154104558e-03  2.0595171689816397e-02  2.4226324148279230e-02  3.2258073195245186e-02  7.8304084055795184e-03  6.8566634211925048e-02  6.7169221640953777e-02  6.7129875210852313e-02  6.7401475798765695e-02  6.6501111554745904e-02  4.8503121077935352e-03  6.6440109185003440e-02  6.6405956234971253e-02  4.7736564792221726e-03  6.6435049980001035e-02  4.3304061169110479e-03  4.3483583932138557e-03  5.1156728219741085e-03  4.3442696795734492e-03  6.0852665823986846e-03  7.7681379026893985e-03  6.7244083699714172e-02  6.8274910398587255e-02  6.7732674173805227e-02  6.7184932905208411e-02  7.3082607744895459e-03  1.5098876857545214e-02  1.7495727127814283e-02  6.8005023847880749e-02  3.5710369809440833e-02  6.6211819272576661e-02  6.7855867285852522e-02  6.7649994846266603e-02  6.7348526155859068e-02  6.7045005061953142e-02  1.1229082261020264e-02  7.0396803588593515e-02  9.1763567424681634e-03  6.6703602062576750e-02  7.0857872241123672e-03  5.1174124152791834e-03  5.2581989803530300e-02  4.8150280648420259e-02  5.0624741990516952e-03  6.5013776940662293e-02  6.0407473471136156e-03  4.5103965087078597e-02  5.9555838917838937e-03  6.6637425915582818e-02  5.2921411294736915e-03  4.8540142742283156e-03  6.6909233966425077e-02  3.8660343654716101e-02  6.3995551114711086e-02  6.8184817562397262e-02  7.5464980210989538e-03  5.3912559571441072e-03  4.1760113901082647e-02  2.9727544805246385e-02  4.3959756021258178e-02  4.7696184606216455e-02  3.9273978061608442e-02  6.6633257899219811e-02  6.8019138757843154e-03  7.8642130397346410e-03  5.8563712193726329e-03  7.4419628203383822e-03  2.1198317226756431e-02  6.5595490158679978e-02  6.7552962903583785e-02  1.4798898520094776e-02  1.4739146281811411e-02  2.4895896360273884e-02  1.5537768856400118e-02  4.9509563692395404e-02  5.2316266900389097e-02  7.0087943186454178e-03  5.6644490990252122e-02  6.1281366585064181e-02  5.0169270090116451e-02  4.7339223433274714e-02  6.7279289691769981e-02  1.0002111952993243e-02  5.9012499606502081e-02  5.7041300885609450e-02  6.5231215532278078e-02  5.2736933953979603e-03  6.7102682126599020e-02  1.7260311325495891e-02  6.9112824161054145e-02  5.9017970489749688e-02  6.3028496645669164e-03  6.1012534323683226e-03  5.9413729545925885e-03  6.4795086948276501e-02  2.1734305617877203e-02  6.6836441132734806e-02  6.6594479023338024e-02  1.3866892087252334e-02  1.0832239280518637e-02  7.7278955975328871e-03  2.3806483885261076e-02  5.7314474921607454e-02  4.0618056666594210e-02  6.7798721575638349e-02  1.9901283781280091e-02  6.7676728629335575e-02  6.7939559334974406e-02  7.3052356922538525e-03  6.6113088102019824e-02  5.5052171681605633e-03  5.5161766128912614e-03  1.6560810692219850e-02  1.3787454988049293e-02  6.7130649794652705e-02  4.5034372188756692e-03  4.5141125355742523e-03  6.6767339565386163e-02  6.6998729969490009e-02  6.7004641654836550e-02  4.8799085792926543e-03  4.9149237226301682e-03  4.7542324187880292e-03  3.2065759501479822e-02  5.1263734970429867e-02  1.2207944333178067e-02  4.6187685851922363e-03  6.6543484978347764e-02  6.6832288780126287e-02  1.5625428708327328e-02  5.5812385767076179e-03  9.9194814400121161e-03  6.7036959099577870e-03  6.6424933440280042e-03  6.7264192797622246e-02  2.7115090546747701e-02  6.2898544379157692e-02  6.7330919451542154e-02  5.2491227332205981e-03  4.5050614036750425e-03  4.4724344169329282e-03  2.7658703347819062e-02  2.7744966275780089e-02  6.7424033861328628e-02  6.7442097636596560e-02  6.8968122967369011e-03  1.0314278012679718e-02  2.6501599159972657e-02  5.3737384894108038e-03  6.7271480033961037e-02  6.7588628199748965e-02  6.6972977153588797e-02  4.8305458106456395e-03  7.0962734291070166e-03  4.8649237465372332e-03  6.6384458105128830e-02  6.8678975856895808e-02  4.4834560276041666e-03  6.9513845636212837e-02  6.8076801511464641e-02  1.8497080927480779e-02  3.2230657753113241e-02  5.1437625527795232e-03  6.6501753699856711e-02  6.8176116633017536e-02  6.8399153621223271e-02  5.5077321550160282e-03  5.5938319548085105e-03  5.4569177209952822e-02  5.7149700870633086e-03  6.0729804522992982e-03  4.8385065660427246e-02  5.4627538730815635e-03  7.0293304964865839e-03  5.8996345548344944e-02  2.1757295923512773e-02  6.6567015339947078e-02  6.1655091332135002e-02  6.9269194480196208e-02  5.7291160806173719e-02  6.8074935519908633e-02  5.7084714657853804e-03  6.7874236793108209e-02  6.8623050788194542e-02  4.7773294478920163e-03  4.5094848932845212e-03  6.6323853015921211e-02  6.6527088768487619e-02  3.5291968389612870e-02  1.4276355909399180e-02  7.5866592102317261e-03  6.3605892799371419e-03  5.1369829502515035e-02  5.9133461074420413e-03  5.5078491602764720e-02  6.7125885471955332e-02  6.7273179940813221e-02  3.5240538440856915e-02  6.8154569979945345e-02  2.0776287834770750e-02  3.8308127492181029e-02  4.9554841507370322e-02  4.1478139925599081e-02  1.9439430648155284e-02  6.5806838848054411e-02  6.2966022179849798e-02  2.4708519108373669e-02  4.2604631223958959e-02  3.3931175489478785e-02  5.1859841450418911e-03  6.5577937717869517e-02  6.6142529188857463e-02  6.2782231139288797e-02  6.6909074484763811e-02  6.6972669678946620e-02  4.6751392774031821e-03  6.6820470150301056e-02  6.4877675302438169e-03  9.2305014501679813e-03  6.6863152544070117e-02  6.9177229719946456e-02  4.5220216310938061e-02  2.6579062811696696e-02  3.5532026171246692e-02  5.7203889399789782e-03  1.0067295646632821e-02  6.0616313025848821e-02  7.0857978146155395e-02  6.8908108362808876e-02  5.8686815471625598e-03  5.1038963349255909e-03  5.1965386204909571e-02  5.7987527514188463e-03  6.4911756005236881e-02  6.7963050373950479e-02  6.2587306004236884e-02  4.5265410488791414e-03  8.1726492961987727e-03  9.8225061522979711e-03  1.4806555715896645e-02  4.8062278590999289e-03  6.7757180957126087e-02  6.8013830871201553e-02  1.4036692780329535e-02  6.0740427098335936e-02  6.7745771532636292e-02  6.6418625135871726e-02  4.6794286130651182e-02  6.1813364516707235e-02  3.3588685578191717e-02  6.3603913140479695e-02  6.8232319270208827e-02  6.8552069640260421e-02  6.7502116391799760e-02  3.0598560806730020e-02  4.6097734454455495e-02  4.1668249930306787e-02  7.3299392617463465e-03  5.6280270108894713e-02  6.6538015042407000e-02  6.6741227031192854e-02  5.0676128679030350e-03  6.3921852752240969e-03  6.7249402613398471e-02  6.1169490164715732e-03  6.2245737790936395e-02  7.2931411893681656e-03  4.6662308708391572e-03  6.7714322332976709e-02  3.2999506353913188e-02  5.4168683026794406e-03  4.2679682392478178e-02  5.6447455826164845e-02  4.0819909132949014e-02  6.7133339646009184e-03  6.9955731565122768e-03  4.7573853201397353e-03  6.2822203537197405e-02  6.8748971095016528e-02  6.5469880626586374e-02  1.8494189935267972e-02  4.7281339754107294e-03  6.6432948299521954e-02  1.5451133072906305e-02  6.6704923976165481e-02  5.4638411959051288e-02  6.9273972188055769e-02  5.5363457989903608e-02  5.9248246176165946e-03  6.8464913354878310e-02  4.9780046875676108e-03  5.0330666444696609e-03  6.8307703780683182e-02  6.6781038000708282e-02  6.8648230603727836e-02  5.8674432990524633e-03  6.9810274718921303e-02  5.2162459461464828e-03  9.7810479659897042e-03  1.2401816678302230e-02  6.5874639207100637e-03  6.2781766744173968e-03  6.2518489522892604e-03  6.1864492163281160e-02  6.4545849113639794e-02  5.6092645890161844e-02  8.5475714997452750e-03  6.6399426532898695e-02  5.2198355651647391e-02  4.3009482652615352e-02  6.6759150523346883e-02  6.8233177160241576e-02  6.4957363341182545e-02  1.7311504691210688e-02  6.7164148974035841e-03  6.6154448753491801e-02  6.7015630275575194e-02  6.7899375445236138e-02  6.0560729793471858e-03  1.4110185604841457e-02  8.8366654725395549e-03  4.3200437249451707e-03  6.4136572109117660e-03  7.7594099199189874e-03  5.4211806393561247e-02  6.7401714933393114e-02  3.4118719048562625e-02  5.1401566043041197e-03  1.0853066486708444e-02  3.2415773934721136e-02  7.8482019410670411e-03  4.3290551419037527e-03  4.4444933852459245e-03  6.6544297712400322e-02  6.9403412454111550e-03  6.7537247640959933e-02  6.7612368361934058e-02  6.0509503857386635e-03  5.4162276214180793e-02  7.1516981368865305e-03  6.5606290954859550e-02  9.7130458850635190e-03  6.8594792066975843e-02  6.2944808019476809e-03  6.7582767461144139e-02  6.7280834516162430e-02  6.6508054172952968e-02  6.6537531167746980e-02  6.6561875347815542e-03  7.3727150770539918e-03  2.9531150114009714e-02  4.6134270619531464e-03  6.6905283666778254e-02  6.7419953421216025e-02  8.0674651578452709e-03  6.5445103142995949e-03  2.2384155102009473e-02  6.7186488222276283e-02  1.8739975562177033e-02  4.9346881957269143e-03  6.4534310381621444e-03  4.3313941040667306e-03  5.0554051992972573e-03  5.0248583970070350e-03  5.3533204344716166e-03  1.0555839483698107e-02  1.5217540364936201e-02  8.5472988098016164e-03  4.4389178260344029e-03  6.6837823730897736e-02  4.9232768366600354e-03  6.8769750440517766e-02  6.8747355284550074e-02  7.9017096124487790e-03  6.2235751150262059e-02  6.3332872851263419e-02  1.3456211597363611e-02  2.2028551514354323e-02  2.9606963003272528e-02  1.1060492046679835e-02  1.1776822144161155e-02  4.6283688972942024e-03  6.6910828245783496e-02  6.7352704182899417e-02  8.0391017980376515e-03  2.3299407233823476e-02  6.6726114168149497e-02  4.7477285506325982e-03  4.1208956167924311e-02  5.9175085290663995e-02  4.0684712503437158e-02  6.6296369864429106e-02  4.5032750855540458e-03  2.5457735966247751e-02  6.9106141249622055e-02  4.4302494872607342e-03  6.6657600054097571e-02  5.9295781173451254e-03  5.6685334605088462e-03  6.4736444681909214e-02  2.9540896796380715e-02  4.2738283706848734e-02  5.8800511168949736e-02  1.7986733394666575e-02  6.9425696948055809e-02  6.8044546439670769e-02  6.0542850023195344e-02  5.1349566481746177e-03  4.4118410187344104e-03  6.7535505178458924e-02  4.9729615164127133e-02  8.0770335695623009e-03  6.2110456525458803e-03  1.2312834176833789e-02  4.2011279056467461e-02  6.9007508627968825e-02  6.7985015749437536e-02  4.5322034189926932e-02  6.8460352224840079e-02  2.1502918220262821e-02  7.2125494168970329e-03  6.2633639969125465e-03  5.5635203033077545e-03  2.3426556334700768e-02  6.8334506866757308e-02  1.1267211865737569e-02  7.5186741698512732e-03  7.9887116053357857e-03  2.6480919653367952e-02  1.3529061838830214e-02  4.4550368606203370e-03  4.3280155937773486e-03  5.0257100997023040e-02  6.3146256445721305e-02  1.7804891569395260e-02  6.8207815315747086e-02  4.5914748419773534e-02  3.7543883638840245e-02  4.8041153873356621e-03  6.8168936523073280e-03  2.1144503131695663e-02  4.7050179501059771e-03  2.4293721410252957e-02  6.3985723910331804e-02  4.4552551195742369e-02  1.8382626436030933e-02  2.3685924983889977e-02  7.1841960477349708e-03  6.6371311886775475e-02  6.6593294742253131e-02  7.4439894193181859e-03  8.3838620306147110e-03  3.0220664410122659e-02  6.2298780774183013e-03  3.3475618886490352e-02  2.5151229179291443e-02  6.7022892314902979e-02  4.4207206345482902e-03  3.4561207442046084e-02  4.3735280949932683e-02  6.6758868236074763e-03  1.3585324704506234e-02  6.7288354651968821e-02  6.9199496668158420e-03  5.9055531430624877e-02  8.5843018314936299e-03  4.8113629989661923e-03  5.0612079947986791e-03  6.8818313578440839e-03  5.1971503987927811e-03  6.4151858976983861e-02  6.7795036718030763e-02  6.6988447131638068e-02  6.7171398632759907e-02  6.7217076004341056e-02  4.2440945071796708e-02  5.5829491700856004e-03  3.4919945082736256e-02  5.6499247209061083e-02  5.9991178193830520e-02  1.2023250777320449e-02  5.1128781114653452e-03  4.6122610772299085e-03  6.7029151103546611e-02  6.8516269601709215e-02  6.6137817466963650e-02  6.0599567693029027e-03  6.5186492705430407e-03  4.6241930145649937e-02  6.6443090928499177e-02  5.3375441714195081e-02  6.6493543381738809e-02  6.6410724791301765e-02  6.6296886080829981e-02  6.7873308259716020e-02  6.6445130176946351e-02  6.3683995698272863e-03  5.4604161087352682e-03  5.7226081156218364e-03  4.3847280876909136e-03  4.5705824226122535e-03  5.1231385753544951e-03  6.8866232271035360e-02  6.8629745980569826e-02  6.8405822859171697e-02  6.6418709881268093e-02  6.9411182017009701e-02  7.0726643744363328e-03  5.2379009707814728e-03  6.7321861886116871e-02  6.6397404883904568e-02  7.6953517305275807e-03  6.6739573314528386e-02  4.3991991708396743e-03  7.6459877102753194e-03  5.9738613024954883e-03  3.3847192088151845e-02  5.7068829444308106e-02  6.2694455935579277e-02  2.4831226746070592e-02  3.2387287151826372e-02  3.7869099239749848e-02  6.8127383804890959e-02  6.5902912989370399e-02  6.9483200686816307e-02  8.5223203599836123e-03  1.7901358343327668e-02  4.3609576704972015e-03  5.3219866671125344e-03  6.6489840182798854e-02  6.5824534165228224e-02  6.6527102840136507e-02  6.2347838867695760e-03  6.6447748649456420e-02  3.4514137535500665e-02  5.6288359212024089e-02  4.6265999892987464e-02  1.2998374336057958e-02  7.8963980172721184e-03  4.9765837505549318e-02  7.0102781819157411e-02  6.7211529905950362e-02  6.5500591880949491e-02  8.1232233995572559e-03  6.7066556367722130e-02  6.8154391866466491e-02  6.8016057095397667e-02  6.7906203479385835e-02  6.8381120232961945e-02  6.9903811163468180e-02  7.0137359467058527e-02  4.8542084773461301e-03  5.4768492641299460e-02  6.7117867973325279e-02  5.5503191126404462e-03  5.5215088492334176e-02  5.1184878701136232e-03  6.8052089830283186e-02  6.6950855712925347e-02  4.7014641429312214e-02  6.9036548229082881e-02  4.3153585344082666e-02  6.7224246881209621e-02  6.1261292056877222e-03  6.2259225659057824e-02  5.6576016334241759e-02  5.2455483260759068e-03  4.6584143098808636e-03  6.5912882268691408e-02  4.8820668727924139e-03  4.7475847872727878e-03  6.6799589679704896e-02  8.6526007397229043e-03  2.0651716919451935e-02  1.3821258359909341e-02  2.3691079064492825e-02  9.5489586440997004e-03  6.7791530802090799e-02  6.7692152624826196e-02  6.1988432751510419e-02  1.0561363983948599e-02  8.4769998369324164e-03  9.3331786665012979e-03  7.3676290054072576e-03  6.7000497380692123e-02  6.8275995583450919e-02  6.6337903365044734e-02  6.7630061439573425e-02  9.2368766941795365e-03  6.7480900630574200e-02  6.7413211894818179e-02  6.5874312053714329e-02  1.1246599051005272e-02  5.4522750494765569e-03  5.3421247794195187e-03  6.7128528234038864e-02  6.6626167871408279e-02  6.7964589864371233e-02  6.7903216813526013e-02  6.7733265255773695e-02  2.7195223882584690e-02  4.8527506284631082e-03  6.6732964756358676e-02  6.6601101708262264e-02  6.6878207159541014e-02  6.6939955027238748e-02  6.6807711783348364e-02  6.4033617265249851e-02  2.8659242253342938e-02  6.0449203147233416e-03  8.2887156662505221e-03  4.4430683271441023e-03  6.3370990138184235e-03  6.6281056982080783e-02  6.7833359305191743e-02  6.8564535167041862e-02  2.0701116450692381e-02  5.1388988146039948e-03  3.3201714306785202e-02  6.2470044265667928e-03  6.1529408687211906e-02  6.6742981568534532e-02  5.2869012892167236e-03  3.9840231794499789e-02  4.9660114755082987e-02  1.4972898307129386e-02  4.9255938834424154e-03  6.6484121586964998e-02  6.8192208102584598e-02  5.2836150499882981e-02  2.7717634168318534e-02  6.8424651799458919e-02  5.5860123320545553e-02  5.0646675977619668e-02  6.7530884245124212e-02  4.6060114539834976e-03  6.7544699686151732e-03  6.2448135996280102e-02  6.8152104215687057e-02  6.8290627241489391e-02  6.6757820959362862e-02  6.6522219751389861e-02  5.1716980822025579e-03  6.6469680387113553e-02  5.1704876586142444e-03  4.6952098487526928e-03  4.7688434624591679e-02  6.7043617170681927e-02  5.8433669190513810e-03  3.8875866428327674e-02  4.9957508873604162e-03  6.1264551765131729e-02  6.6732750900058424e-02  6.6862087477968790e-02  6.6978583749704154e-02  6.6699741709421459e-02  1.52078001266