<?xml version="1.0"?>
<VTKFile type="UnstructuredGrid"  version="0.1"  >
<UnstructuredGrid>
<Piece  NumberOfPoints="6486" NumberOfCells="12696">
<Points>
<DataArray  type="Float64"  NumberOfComponents="3"  format="ascii">0 2.5 0  0 0 0  2.5 0 0  2.5 2.5 0  1.25 0 0  2.5 1.25 0  1.25 2.5 0  0 1.25 0  1.25 1.25 0  0 0.625 0  0.625 0 0  0.625 2.5 0  0 1.875 0  2.5 0.625 0  1.875 0 0  2.5 1.875 0  1.875 2.5 0  1.770833333333333 0.7291666666666666 0  0.7291666666666666 1.770833333333333 0  0.9375 0.625 0  1.875 1.5625 0  0.642361111111111 1.163194444444444 0  1.341594827586207 1.883979885057471 0  0.46875 0.46875 0  2.03125 2.03125 0  0.3626104797979798 1.513178661616162 0  1.381740196078431 0.4564950980392157 0  0.9375 2.172619047619047 0  2.172619047619047 0.9375 0  2.096354166666667 0.4036458333333332 0  0.4036458333333333 2.096354166666667 0  1.684027777777778 1.163194444444444 0  0.3418803418803419 0.8693910256410255 0  1.642742622813391 2.162164207604464 0  1.275619849389031 0.8465650753054845 0  0.9136284722222221 1.434461805555556 0  1.732437511238546 0.3406962303960658 0  0.9714402568595876 1.029779313093998 0  1.52281746031746 1.485615079365079 0  2.1875 1.71875 0  1.06819722569879 0.2997236128493951 0  2.136114211309524 1.303478422619048 0  0.3125 0 0  0 0.3125 0  2.5 2.1875 0  2.1875 2.5 0  0.3200021620376328 1.192323085056694 0  0.6738456129277992 0.8304377375553881 0  1.757891808928991 1.861952730357003 0  1.5625 0 0  0.9375 0 0  0.3125 2.5 0  2.1875 0 0  2.5 0.9375 0  0 0.9375 0  0 1.5625 0  0.9375 2.5 0  2.5 0.3125 0  0 2.1875 0  1.5625 2.5 0  2.5 1.5625 0  0.7448220909826522 0.3003573636608841 0  1.027298850574712 1.871151477832512 0  1.331260495098891 2.197262878816185 0  1.207917681892289 1.582765010956622 0  0.4339993447432606 1.801186844743261 0  0.6337298768939392 1.443093039772727 0  2.049851190476191 0.6826636904761904 0  0.6584821428571428 2.219122023809524 0  1.89575676467455 0.9798457973793544 0  1.437570562095628 1.059380588255917 0  1.502090052505845 0.6987070896496241 0  0.2040860661083546 1.705323965099331 0  0.2083333333333333 0.46875 0  0.5070952039991439 0.2211150679997147 0  0.6916302856529919 0.5813591430410241 0  2.265625 1.953125 0  2.2265625 2.2265625 0  1.886424081252096 2.243391360417365 0  1.40625 0.202164758520858 0  0.2269345238095238 0.2269345238095238 0  1.152730869673694 0.5225850378741401 0  1.885631899587912 1.312095130148776 0  1.614808884009367 0.9049784971014416 0  1.890095442220658 0.5126535558463003 0  2.323168682795699 0.46875 0  2.268811725689575 0.2304742875213018 0  0.6002389442105756 1.967426444210576 0  0.1768313172043011 2.03125 0  0.2311882743104251 2.269525712478698 0  2.03125 0.176831317204301 0  2.280262553344767 0.6954945504579233 0  1.979219539285994 1.809922269642997 0  2.336309523809524 1.09375 0  1.09375 2.336309523809524 0  0.9314042474388009 1.662973812215543 0  0.1634067999087722 1.40625 0  2.337090640094896 1.40625 0  1.141616997467638 2.069311773587991 0  0.46875 2.338939559681489 0  1.542440307908715 1.734944797244472 0  1.556713687786879 1.956977865354753 0  0.8264238995344066 1.975424467820646 0  1.466326331454725 1.275271369760862 0  1.655675324257095 0.5444159974393489 0  0.3385416666666666 0.6479255698005697 0  0 0.78125 0  0.5236073939200119 0.984090461540625 0  2.091665741047893 1.519793517904215 0  1.71875 2.5 0  0.5356538886262603 1.623137930505009 0  0 1.09375 0  0.1932884281517095 1.015625 0  0.8569313582417669 1.2198915584249 0  0.8876981284879677 0.8329884081524883 0  1.115618488474214 0.7219586973356271 0  1.186950366204949 1.043465130075318 0  2.057459118787237 1.110823087309335 0  1.830651283878689 2.049810069572418 0  1.689107969301489 1.367247437031697 0  0.4921048768039656 1.298643370653124 0  0.8213975694444444 2.336309523809524 0  2.03125 2.5 0  1.049729400480002 1.283723261332814 0  1.308101375801673 0.6489479469700392 0  2.5 2.34375 0  0.4968777175037714 0.7562964879736076 0  1.40625 2.5 0  1.501347663534097 2.307027627307738 0  1.602813712048603 0.1926218191360736 0  0.8393082906308107 0.463778306132633 0  1.682663349152719 1.598471865581041 0  0.7774174680851571 1.560004941327907 0  1.554204170364662 0.3898593897892066 0  1.842184459051087 0.186443880058197 0  1.358107417651776 1.696381759610015 0  1.18859291992392 1.77598670078022 0  0.1875331222687418 0.7609599743339348 0  1.339536743965101 1.422080365801479 0  0.7788179348750389 0.9955343414928611 0  0.9062978492805438 0.1919636509126373 0  1.256007360640958 0.3160320559396114 0  1.09375 0 0  1.174986727221844 0.1594990293443933 0  2.34375 1.796875 0  2.318026474511116 1.589177949022232 0  2.34375 2.5 0  1.672742954892153 2.332882724550692 0  0.2683637361947215 1.874801596909639 0  2.174770749820102 0.5581009131310781 0  1.443279522965991 0.8870068372898454 0  0.3385416666666667 0.3571428571428572 0  0.78125 0 0  2.060421048269335 2.314363248763811 0  1.088078737088509 0.8967352118723447 0  1.087825368444708 1.454931510884769 0  2.018308232129541 0.8548495425854904 0  1.943987311736842 0.3246298523011434 0  1.71875 0 0  1.85337849796276 1.144833312386208 0  2.3486328125 2.1044921875 0  1.407588788651747 2.042968789119587 0  2.336309523809524 0.865366648092144 0  2.34375 0 0  2.5 0.15625 0  0.15625 2.5 0  0 2.34375 0  0.1638044648294291 1.242263417405867 0  0.356216654757926 1.032569427322806 0  0.3188217956111817 1.355736727000647 0  0.5924956460852111 0.36112522004736 0  0.6594216488965849 0.1603472116132387 0  1.841804599497131 1.72214349266521 0  0.15625 0 0  0 0.15625 0  2.115898634821499 1.894570904464496 0  0.7821877980253907 0.7129993435924866 0  1.003820447087786 0.4516053462784233 0  0.477562948779147 1.138333049293613 0  0.719493678605015 1.305655360135975 0  0.9772457618587566 2.020350128938537 0  0.8764738248887107 1.826219722709673 0  1.254787875123819 2.339010653832026 0  2.343597354852534 1.249982759769001 0  0.78125 2.5 0  0.46875 2.5 0  2.5 1.40625 0  1.09375 2.5 0  2.5 0.78125 0  2.5 1.09375 0  2.03125 0 0  2.5 0.46875 0  1.40625 0 0  0.46875 0 0  0 0.46875 0  0 1.40625 0  0 1.71875 0  0 2.03125 0  2.5 1.71875 0  2.5 2.03125 0  2.005424054645407 1.653223486966518 0  0.1538730573856537 1.559850281736677 0  2.33984375 2.33984375 0  1.166539506212474 1.922878979538754 0  0.3914885633949916 1.65887232812171 0  0.5795503163042564 1.766243562569382 0  0.399533125920212 1.946786875081388 0  0.7866324979014098 2.127719094551316 0  0.3654683023546834 0.1495701132219454 0  0.1527388747131078 0.6116379440619215 0  2.013737577140188 1.391056634712135 0  1.17635437372994 2.213329084238133 0  1.737118141866284 1.010577140843115 0  2.200707118087222 1.164723314085963 0  1.697018908736685 1.993548551451517 0  0.5387621649009668 0.6070503962352419 0  2.032805785855952 0.5330427622570983 0  1.082699501358059 1.667818725183932 0  1.503819781540653 0.5468420196858188 0  2.015409142866072 2.175941657590429 0  1.752057611265444 0.869642097111018 0  0.612251684107783 2.356045720700959 0  1.902817102342857 0.6607642211999982 0  2.159616561739693 0.7867739969338844 0  0.5120038350106624 2.197302352398502 0  1.888200216011548 1.919501662489862 0  1.495909909726654 2.16028358757309 0  0.489139876703609 1.443203008943564 0  0.8819175670410521 0.3301172743913011 0  1.882591144370812 0.8155965192707721 0  1.133979796994841 1.172526771862882 0  2.206217447916667 2.084147135416667 0  2.20361328125 2.36279296875 0  1.395746985657004 1.556054166359645 0  1.704383111516207 1.734750450338683 0  0.9575737847222222 2.36274223823052 0  1.035150984253136 0.1302833343179028 0  1.383966125325753 0.7651479963479179 0  1.64003252158672 0.6824316405528895 0  2.22550785055421 1.487078576356817 0  1.760964431499756 1.48495222505201 0  1.276460980673788 2.004207003584658 0  0.1341477688427096 1.828777507920502 0  1.542261434180652 1.155296658359034 0  1.334627911613854 0.9696897472490321 0  1.30794231473696 1.119420615785191 0  0.7028260459857245 0.4438906910721139 0  1.625757433094055 1.84268057552138 0  0.9818707849053143 1.165603626132254 0  2.0086489901463 1.243134585689553 0  1.934584460420609 2.374094051915812 0  1.798434376789567 2.38671361912528 0  1.206314791201715 1.382064292497919 0  0.6333752893366955 0.7023738550008095 0  0.7796219811205605 1.42573253164258 0  1.564399711917382 1.026040828857629 0  0.3385416666666666 0.4889012896825397 0  0.1041666666666667 0.390625 0  0.989112246382566 1.543537365516289 0  2.025724425454636 0.9846960595520872 0  0.6602885475034063 2.086117390485779 0  1.607130551925032 1.267198646640915 0  0.1317864544877056 0.8896173683400176 0  1.755387840017567 2.230364320056445 0  1.301540702984401 0.1216289692748247 0  1.433170657577442 0.3331052752740999 0  1.500459610550388 0.113513924782439 0  0.6494291520606965 1.029586599619295 0  1.010146149868299 0.794897284196169 0  0.3700844198238017 2.235390157870766 0  0.3360891767780704 2.36656279435396 0  1.876856241037701 1.437150669863757 0  1.778674102957329 1.245979347269706 0  0.5472829890977179 0.1005517127039925 0  0.4669074189005698 0.3416784232954367 0  1.472765289289269 1.850899166481903 0  1.555853593327178 1.608452097912802 0  0.6708955559113426 1.646561631116984 0  0.8164699620322933 0.5924479455478063 0  0.3167738989468366 1.758696809749795 0  0.2788007305565096 1.605499483471246 0  0.7821720982350511 0.181524936294752 0  1.376812251214195 2.313340247908297 0  1.785652202614777 0.5962261755537186 0  1.761467296310972 0.4679567244718574 0  2.2265625 1.8359375 0  2.3828125 1.9140625 0  0.5279531607054191 2.071552361614785 0  2.397573269551114 0.234375 0  2.383578172599618 0.3589298466020009 0  0.1024267304488855 2.265625 0  0.1164218274003825 2.141070153397999 0  0.2696857594953064 2.135405441512016 0  2.164961300137334 0.1375322943529536 0  2.137757548369486 0.2724194778647587 0  2.238873711826398 0.3626419179496562 0  0.1001414910226386 0.234375 0  0.2176339285714286 0.3478422619047619 0  0.2503620791333544 0.1061694061057066 0  2.336445461915368 0.1250451055247424 0  0.2154004640409726 2.3918124
[...]
<PointData  Scalars="f_124-1"> 
<DataArray  type="Float64"  Name="f_124-1"  format="ascii">6.6153779952687480e-02  7.2261923677093502e-03  4.1933438848209123e-03  3.4640047092075035e-02  6.1360188341501613e-03  4.2095733039723250e-03  6.6132239462134659e-02  6.8267274177927065e-02  3.8326257876757218e-02  6.9245117334843551e-02  7.2318930227104729e-03  6.6189720995871892e-02  6.7182527832095912e-02  4.0770501563963269e-03  5.1028202221443109e-03  1.0018533353622119e-02  6.0892017597045066e-02  5.3478581246759688e-03  6.7361544099993606e-02  1.4719841369909123e-02  1.9243548060658831e-02  6.6912969018598750e-02  6.2469566090394391e-02  4.0442571635464337e-02  3.6415494074616056e-02  6.7829175034659586e-02  5.9953238618531629e-03  6.6699391696578986e-02  4.6298715852299216e-03  4.7118928145849200e-03  6.6822172195025620e-02  1.0616634752989376e-02  6.8863238265568463e-02  6.0370527622069715e-02  1.1812309073272315e-02  6.4866216754435893e-02  5.2999648057437208e-03  4.3226181378050822e-02  3.5293669332521031e-02  1.3278634959289297e-02  6.5487686104360914e-03  6.0517382677079314e-03  7.5976218234287043e-03  4.5774717913616057e-02  2.1052311351246234e-02  4.9864282324070378e-02  6.8361437395259642e-02  5.3529416624162288e-02  4.2818621321879975e-02  5.5875679045030080e-03  6.6944802666153609e-03  6.6143864586913792e-02  4.6102593267709699e-03  4.0625677815292888e-03  6.8737184040434274e-02  6.7751076712620900e-02  6.6187928568500157e-02  4.1287197102903581e-03  6.6648008913800377e-02  6.5277631616602799e-02  5.3692040249860486e-03  7.9841587909436230e-03  6.6710249964832324e-02  6.5835186357822165e-02  5.8930939372004623e-02  6.7352612177743396e-02  6.7805205565674168e-02  4.7802878669041165e-03  6.6619515183409236e-02  5.5065852002036579e-03  1.4515585054358734e-02  6.1509728244660399e-03  6.7512402429190335e-02  6.6649335755157191e-02  1.0093775147123020e-02  2.8013466577632002e-02  1.9469883687175813e-02  3.5792222771587154e-02  5.4049566195979760e-02  5.8668344606273492e-03  3.1220833223720813e-02  6.9982124839946232e-03  9.7701671138392121e-03  6.9349336060386844e-03  5.0399289089662468e-03  4.3324511861540290e-03  4.4529567872392860e-03  6.7064743991725434e-02  6.6918960785482276e-02  6.6508342518547467e-02  4.8366323535080887e-03  4.3935394939451948e-03  2.6816424476510711e-02  4.3777849103208595e-03  6.6397202731884930e-02  6.6701846793963682e-02  6.8014891305361577e-02  5.3019901788884799e-03  6.6503231922261749e-02  6.6410214889244118e-02  4.8737212177947853e-02  5.7431126653066433e-02  6.7038427318998062e-02  2.4668811865942355e-02  5.4927508420975482e-03  6.6686906487085723e-02  6.8994340981456515e-02  6.7224388449320993e-02  1.0063680926386325e-02  6.3735183058445249e-02  6.7635504231892629e-02  6.8498444862280183e-02  6.8639671955106368e-02  6.1589793764511666e-02  3.3844010526998716e-02  1.2035436344830128e-02  2.7897283291727800e-02  5.3121860659392801e-03  4.8154648085625376e-02  1.8122581343264568e-02  6.8139541275933010e-02  6.6431746976375466e-02  5.5972802810972992e-02  5.3989673559103279e-02  6.9439760507368402e-03  2.8326896691357364e-02  6.2671317361536596e-02  6.5912907998775083e-02  6.5013321750387459e-02  5.5228209429764360e-03  1.0609290883069739e-02  3.1717181794441454e-02  6.7400325766599892e-02  5.6379589796287854e-03  5.1132182369584079e-03  5.6488826230652489e-02  6.4247188187009197e-02  6.9341736809731241e-02  4.3116208160538780e-02  5.5907569676284068e-02  6.7857233616096281e-03  6.1737131000749266e-03  6.4118373012059283e-03  6.3081079782866369e-03  1.1160746375245943e-02  7.4198149481248940e-03  4.1688290721488358e-02  6.2823725981637255e-02  6.7218930132938795e-02  4.5600794561553954e-03  8.9084816344901056e-03  4.4433231171554441e-02  6.9534998237525038e-03  4.9054642586355099e-02  2.3693840633882048e-02  5.9484739103188376e-02  4.8987032074296740e-03  4.9551094743712871e-03  5.3481032234579699e-03  7.1568368740416157e-03  2.3007075444593406e-02  6.3726153242567030e-02  4.2941219253106611e-03  4.3992681471375760e-03  4.1722822044877369e-03  6.6151150434882469e-02  6.6353978696394519e-02  6.8262056233161603e-02  6.8664323907242877e-02  6.8084806091181477e-02  1.4972309990074997e-02  7.3320223673893287e-03  2.9672545468314361e-02  7.0766597888885160e-03  2.0343699163283185e-02  2.3974848688486788e-02  3.2006600668563562e-02  7.5789358790556592e-03  6.8315161683922640e-02  6.6917749108195743e-02  6.6878395011896935e-02  6.7150002216515972e-02  6.6249461317860844e-02  4.5988360871102810e-03  6.6187913738684018e-02  6.6153558936055692e-02  4.5221742850999709e-03  6.6182922364245445e-02  4.0789256274584998e-03  4.0968767554323470e-03  4.8642001409901154e-03  4.0927900229922407e-03  5.8337940553601572e-03  7.5166653761662922e-03  6.6992611173048236e-02  6.8023437859724437e-02  6.7481201204539751e-02  6.6933444884963653e-02  7.0567778695660738e-03  1.4847385595502877e-02  1.7244254278469692e-02  6.7753551249436772e-02  3.5458720733835165e-02  6.5960343666660620e-02  6.7604394584648037e-02  6.7398521708231379e-02  6.7097048129687933e-02  6.6793503304912669e-02  1.0977609734491628e-02  7.0145331061831198e-02  8.9248840291080937e-03  6.6452075389530171e-02  6.8343146849930494e-03  4.8659388203796056e-03  5.2330509995519969e-02  4.7898808121709623e-02  4.8110014564855391e-03  6.4762304155564887e-02  5.7892748195583184e-03  4.4852445390149417e-02  5.7041113504128537e-03  6.6385655780201822e-02  5.0406685274939737e-03  4.6025410165758361e-03  6.6657690465104294e-02  3.8408867792215404e-02  6.3744044153779669e-02  6.7933345016625429e-02  7.2950254945773575e-03  5.1397833616114563e-03  4.1508641373120159e-02  2.9476054534480396e-02  4.3708051654672418e-02  4.7444712004358382e-02  3.9022504996782503e-02  6.6381511563070400e-02  6.5504413492670473e-03  7.6127405130574834e-03  5.6048986877935457e-03  7.1904889943339287e-03  2.0946844661105721e-02  6.5344010752254184e-02  6.7301488851232785e-02  1.4547425992241382e-02  1.4487673755131467e-02  2.4644423833176037e-02  1.5286296329840810e-02  4.9258089672910406e-02  5.2064794372280364e-02  6.7573216046593393e-03  5.6392786082005583e-02  6.1029627919793265e-02  4.9917797551613172e-02  4.7087750906526255e-02  6.7027817145062507e-02  9.7506394251464564e-03  5.8761027079828436e-02  5.6789828358987493e-02  6.4979742934892878e-02  5.0222206187664443e-03  6.6851186878571681e-02  1.7008838795167881e-02  6.8861351634031287e-02  5.8766430853205529e-02  6.0513771379274404e-03  5.8497809053532435e-03  5.6899004267462715e-03  6.4543614421023313e-02  2.1482833091237472e-02  6.6584859124463297e-02  6.6342612107907942e-02  1.3615419506096823e-02  1.0580766737746711e-02  7.4764230710098615e-03  2.3555011358695189e-02  5.7063000742729977e-02  4.0366584005363679e-02  6.7547248877149066e-02  1.9649811254684037e-02  6.7425255476268750e-02  6.7688086702695119e-02  7.0537631657331661e-03  6.5861477246840050e-02  5.2537446185582631e-03  5.2647040675007015e-03  1.6309335837946314e-02  1.3535975038413169e-02  6.6879156667890488e-02  4.2519612507557333e-03  4.2626366571235233e-03  6.6515695457583485e-02  6.6747211473536072e-02  6.6753126224068718e-02  4.6284354939633704e-03  4.6634507502902010e-03  4.5027588646344751e-03  3.1814286974928940e-02  5.1012262443828192e-02  1.1956471806651858e-02  4.3672940537017391e-03  6.6291492584366646e-02  6.6580750302105043e-02  1.5373956181800550e-02  5.3297660387118329e-03  9.6680089134710510e-03  6.4522233834346980e-03  6.3910208174590352e-03  6.7012710841423753e-02  2.6863617987574136e-02  6.2647071851370265e-02  6.7079440775678470e-02  4.9976501355655832e-03  4.2535852105313396e-03  4.2209575787172061e-03  2.7407166877148080e-02  2.7493493749175035e-02  6.7172558830683585e-02  6.7190622274789030e-02  6.6453397688859273e-03  1.0062804600394057e-02  2.6250126624499992e-02  5.1222659242886204e-03  6.7020007506997090e-02  6.7337155411591743e-02  6.6721503953817429e-02  4.5790725223139248e-03  6.8448009025878151e-03  4.6134499925382360e-03  6.6132962802440839e-02  6.8427503328894163e-02  4.2319787413983680e-03  6.9262373109380743e-02  6.7825328980227084e-02  1.8245607659086824e-02  3.1979181956307876e-02  4.8922898881955936e-03  6.6249886700171470e-02  6.7924644086187078e-02  6.8147681089473583e-02  5.2562525855970486e-03  5.3423577653752136e-03  5.4317704682673426e-02  5.4634975553759938e-03  5.8215079200554000e-03  4.8133564080248110e-02  5.2112813236280314e-03  6.7778512273935871e-03  5.8744858444441363e-02  2.1505823396088825e-02  6.6315130635051581e-02  6.1403618799496351e-02  6.9017721953332944e-02  5.7039688279457178e-02  6.7823462993171962e-02  5.4569989330942419e-03  6.7622764088195231e-02  6.8371578259927943e-02  4.5258503542258766e-03  4.2580058483699008e-03  6.6071993561851158e-02  6.6275063629496839e-02  3.5040167400010619e-02  1.4024883220267603e-02  7.3351861064735544e-03  6.1091167531771963e-03  5.1118001346700470e-02  5.6618735792406880e-03  5.4826998450421036e-02  6.6874398159718129e-02  6.7021704574459523e-02  3.4989065909645220e-02  6.7903097426373502e-02  2.0524815308222297e-02  3.8056615683829842e-02  4.9303368768575655e-02  4.1226667398355538e-02  1.9187958121489691e-02  6.5554997640371732e-02  6.2714549652844287e-02  2.4457046581729491e-02  4.2353158697178886e-02  3.3679702962707378e-02  4.9345114736410499e-03  6.5326465183182150e-02  6.5891055886261207e-02  6.2530758521427129e-02  6.6657597361487061e-02  6.6721174884456794e-02  4.4236646916555218e-03  6.6568997560440754e-02  6.2362950036861375e-03  8.9790289236397619e-03  6.6611595178589639e-02  6.8925757192906223e-02  4.4968743784057505e-02  2.6327583044848474e-02  3.5280553630526679e-02  5.4689164081975434e-03  9.8158204953387486e-03  6.0364840486556368e-02  7.0606505619464355e-02  6.8656635835580529e-02  5.6172088879203712e-03  4.8524233060885883e-03  5.1713913626691574e-02  5.5472797122040245e-03  6.4660033687122948e-02  6.7711577782635937e-02  6.2335833477337697e-02  4.2750654222206454e-03  7.9211767696601015e-03  9.5710336257331628e-03  1.4555083189299973e-02  4.5547545577842479e-03  6.7505708103006754e-02  6.7762358288581861e-02  1.3785220229286568e-02  6.0488954571559811e-02  6.7494299005040698e-02  6.6166280413165204e-02  4.6542813599988603e-02  6.1561887482848437e-02  3.3337211832920585e-02  6.3352373698797676e-02  6.7980846733300737e-02  6.8300597110803676e-02  6.7250642174120828e-02  3.0347088035679079e-02  4.5846256855521857e-02  4.1416768551724707e-02  7.0784667352252690e-03  5.6028797545108193e-02  6.6286079735536435e-02  6.6489583449004810e-02  4.8161401451094436e-03  6.1407127486489705e-03  6.6997921428478560e-02  5.8654764895205306e-03  6.1994250803802893e-02  7.0416686628473777e-03  4.4147567022231864e-03  6.7462849293279309e-02  3.2748033827080865e-02  5.1653957454963345e-03  4.2427838736301501e-02  5.6195983299224268e-02  4.0568436323623003e-02  6.4618614378115372e-03  6.7441006299940771e-03  4.5059117856589073e-03  6.2570730726676516e-02  6.8497498567393247e-02  6.5218340635864624e-02  1.8242706884640247e-02  4.4766600209244830e-03  6.6180776290129514e-02  1.5199660546323820e-02  6.6453451449323159e-02  5.4386939421919814e-02  6.9022499661135259e-02  5.5111984820382778e-02  5.6733520886719097e-03  6.8213440824651236e-02  4.7265318179628762e-03  4.7815938736800656e-03  6.8056231244719378e-02  6.6529439410543886e-02  6.8396758076623793e-02  5.6159707700048885e-03  6.9558802192123653e-02  4.9647733333023905e-03  9.5295754394567420e-03  1.2150344151750163e-02  6.3359913941850830e-03  6.0267041477442187e-03  6.0003764255928474e-03  6.1613018800511198e-02  6.4294374649575270e-02  5.5841173223443695e-02  8.2960989732204140e-03  6.6147000251045404e-02  5.1946769760446806e-02  4.2757895256557411e-02  6.6507519081019290e-02  6.7981704631274231e-02  6.4705358673924504e-02  1.7060032164637178e-02  6.4649423708856733e-03  6.5902976224354440e-02  6.6764119754702159e-02  6.7647902873195928e-02  5.8046004521350525e-03  1.3858712524679217e-02  8.5851929450605439e-03  4.0685627367697689e-03  6.1621813374015790e-03  7.5079373163877885e-03  5.3960290461990246e-02  6.7150238257953826e-02  3.3867231328985094e-02  4.8886839289300913e-03  1.0601593957593860e-02  3.2164301407417606e-02  7.5967294145438680e-03  4.0775748649083858e-03  4.1930160564545875e-03  6.6292413807778949e-02  6.6888687188932710e-03  6.7285773553548575e-02  6.7360894844234381e-02  5.7994778296757230e-03  5.3910516673839018e-02  6.9002256103672735e-03  6.5354798503429637e-02  9.4615733585266659e-03  6.8343319539619696e-02  6.0430081216052353e-03  6.7331293624808511e-02  6.7029353708543002e-02  6.6255985693733740e-02  6.6285539313998373e-02  6.4047150082614012e-03  7.1212425505331675e-03  2.9279677586081691e-02  4.3619522683953117e-03  6.6653740815743601e-02  6.7168478989239680e-02  7.8159926160319502e-03  6.2930377528778126e-03  2.2132682335195025e-02  6.6935001344318387e-02  1.8488501640956365e-02  4.6832152231252736e-03  6.2019585116122539e-03  4.0799136889050399e-03  4.8039323035162793e-03  4.7733855575009610e-03  5.1018477731172174e-03  1.0304359222033228e-02  1.4966063491329298e-02  8.2958196610643346e-03  4.1874407855655342e-03  6.6586321907342164e-02  4.6718038785711858e-03  6.8518277912744521e-02  6.8495882756721013e-02  7.6502370819246657e-03  6.1984202174825830e-02  6.3081078472434909e-02  1.3204739063939671e-02  2.1777046549638975e-02  2.9355458107960898e-02  1.0809019520027394e-02  1.1525349617345275e-02  4.3768944153468135e-03  6.6659283585456100e-02  6.7101231174566373e-02  7.7876292715130628e-03  2.3047934211863942e-02  6.6474484899187766e-02  4.4962549441809529e-03  4.0957483641350462e-02  5.8923612764029284e-02  4.0433239976826872e-02  6.6044895671488357e-02  4.2517991402618955e-03  2.5206263355353621e-02  6.8854668722620291e-02  4.1787717795640864e-03  6.6405830330379945e-02  5.6781055893817258e-03  5.4170609244208025e-03  6.4484947436437942e-02  2.9289300297341194e-02  4.2486811094965680e-02  5.8548918318023724e-02  1.7735243946141604e-02  6.9174224421128361e-02  6.7793073868472539e-02  6.0291377144200541e-02  4.8834823848665013e-03  4.1603625241719072e-03  6.7284032020329260e-02  4.9478139610585406e-02  7.8255610430382119e-03  5.9595731239182040e-03  1.2061347998650964e-02  4.1759806523452736e-02  6.8756036100762571e-02  6.7733543212767561e-02  4.5070561019444143e-02  6.8208879694135957e-02  2.1251445693458808e-02  6.9610768903758738e-03  6.0118898028957719e-03  5.3120477119262483e-03  2.3175083808157748e-02  6.8083034332599934e-02  1.1015739339199793e-02  7.2672016433290732e-03  7.7372390788118476e-03  2.6229447126778403e-02  1.3277589312289551e-02  4.2035580744816418e-03  4.0765340501947552e-03  5.0005628445638037e-02  6.2894783887976743e-02  1.7553419042601229e-02  6.7956342772715034e-02  4.5663275893188436e-02  3.7292410298987652e-02  4.5526402165576166e-03  6.5654211257899523e-03  2.0893026780957155e-02  4.4535440856981068e-03  2.4042234438919719e-02  6.3734246236187328e-02  4.4301003846344354e-02  1.8131153909410509e-02  2.3434450913624855e-02  6.9327235207222379e-03  6.6119743357022170e-02  6.6341626657508493e-02  7.1925168927961872e-03  8.1323895040921329e-03  2.9969186228963673e-02  5.9784055506973115e-03  3.3224056936125117e-02  2.4899756652753541e-02  6.6771378041201812e-02  4.1692429279277131e-03  3.4309734915367623e-02  4.3483808423180677e-02  6.4244142900141132e-03  1.3333851870914406e-02  6.7036881984099322e-02  6.6684771402971818e-03  5.8803554068815621e-02  8.3328293049696467e-03  4.5598896864861528e-03  4.8097352625023288e-03  6.6303588313265669e-03  4.9456772521450478e-03  6.3900386450252755e-02  6.7543563907115814e-02  6.6736935496912092e-02  6.6919913485481000e-02  6.6965602033079719e-02  4.2189455650048072e-02  5.3314766322809940e-03  3.4668472489160301e-02  5.6247774679056534e-02  5.9739704661872381e-02  1.1771778130007340e-02  4.8614022207063559e-03  4.3607819701052845e-03  6.6777641522154138e-02  6.8264797072406236e-02  6.5885969987651047e-02  5.8084770398306763e-03  6.2671767440095356e-03  4.5989911992735839e-02  6.6190914350998692e-02  5.3123459337808702e-02  6.6241433669512712e-02  6.6158354171353309e-02  6.6044810180126909e-02  6.7621835552164250e-02  6.6192928336068338e-02  6.1169169419640146e-03  5.2089435590824424e-03  5.4711355842313189e-03  4.1332461771764499e-03  4.3191002649293079e-03  4.8716560805413620e-03  6.8614759743740331e-02  6.8378273452347663e-02  6.8154350327500876e-02  6.6166611442296172e-02  6.9159709490182492e-02  6.8211918479173309e-03  4.9864283677748117e-03  6.7070383025392130e-02  6.6144972792457596e-02  7.4438792040051093e-03  6.6487899608174930e-02  4.1477212880370196e-03  7.3945151837525357e-03  5.7223887749210910e-03  3.3595719561596855e-02  5.6817356917685843e-02  6.2442477393011474e-02  2.4579666449860028e-02  3.2135498301332936e-02  3.7617121795382069e-02  6.7875911244441881e-02  6.5650863277834440e-02  6.9231728160098163e-02  8.2708373092804238e-03  1.7649858743114744e-02  4.1094786369588118e-03  5.0705140675836504e-03  6.6238321846525533e-02  6.5573061476925418e-02  6.6275133188989421e-02  5.9833113595817453e-03  6.6195900457177062e-02  3.4262665008854283e-02  5.6036886685248262e-02  4.6014527366312771e-02  1.2746899808522533e-02  7.6449254907487935e-03  4.9514364978659638e-02  6.9851309292410735e-02  6.6960044442398031e-02  6.5249119350363163e-02  7.8717508730298119e-03  6.6815066123957573e-02  6.7902919314932683e-02  6.7764584501031150e-02  6.7654730818677261e-02  6.8129647700647070e-02  6.9652338636654237e-02  6.9885886940341910e-02  4.6027342001927632e-03  5.4517017876924680e-02  6.6866391893352806e-02  5.2988456844112689e-03  5.4963615965510401e-02  4.8670088605940257e-03  6.7800617253173143e-02  6.6699372270819512e-02  4.6763168901207193e-02  6.8785075701992493e-02  4.2902112785531604e-02  6.6972768084679210e-02  5.8746566786218590e-03  6.2007753131729321e-02  5.6324543806465170e-02  4.9940757200066235e-03  4.4069391952091409e-03  6.5661409741691698e-02  4.6305936510053830e-03  4.4961110860933535e-03  6.6548117121249209e-02  8.4011282060737109e-03  2.0400244392844057e-02  1.3569785819907898e-02  2.3439606537896611e-02  9.2974844395067903e-03  6.7540058044905565e-02  6.7440679693103953e-02  6.1736932551999329e-02  1.0309891376649866e-02  8.2255271926464906e-03  9.0817058400337707e-03  7.1161561972331181e-03  6.6748984408613973e-02  6.8024523045264684e-02  6.6086419863365234e-02  6.7378588142682355e-02  8.9854041675768576e-03  6.7229425863171433e-02  6.7161735751396015e-02  6.5622641440848159e-02  1.0995126523877198e-02  5.2008024893701139e-03  5.0906521984440730e-03  6.6877035010608238e-02  6.6374689338972212e-02  6.7713117256080937e-02  6.7651744172007394e-02  6.7481792325864737e-02  2.6943751355813939e-02  4.6012774909658704e-03  6.6481395746773489e-02  6.6349525677544985e-02  6.6626650822294270e-02  6.6688423220140305e-02  6.6556114891599932e-02  6.3782015849895540e-02  2.8407769705947924e-02  5.7934477874991685e-03  8.0372416817639167e-03  4.1915907652031164e-03  6.0856254984034590e-03  6.6029584013563958e-02  6.7581886758249013e-02  6.8313062638202901e-02  2.0449643916966600e-02  4.8874261557701748e-03  3.2950241780081449e-02  5.9955318998635015e-03  6.1277780136697019e-02  6.6491509041646829e-02  5.0354287013547961e-03  3.9588739544416524e-02  4.9408586584503526e-02  1.4721414621907965e-02  4.6741208691432586e-03  6.6231968006864442e-02  6.7940735557807164e-02  5.2584677824433344e-02  2.7466161639794553e-02  6.8173179267666695e-02  5.5608643635567855e-02  5.0395193114622067e-02  6.7279410511411272e-02  4.3545367067821120e-03  6.5029974420860023e-03  6.2196663313420594e-02  6.7900631668760009e-02  6.8039154704930369e-02  6.6506188668639207e-02  6.6270204993458412e-02  4.9202254324630232e-03  6.6217491367851919e-02  4.9190149931862557e-03  4.4437359597805292e-03  4.7436758134293822e-02  6.6792110975375948e-02  5.5918943901934418e-03  3.8624239794334207e-02  4.7442780713763408e-03  6.1013072141900201e-02  6.6481085035992593e-02  6.6610520660557546e-02  6.6727062711464821e-02  6.6448038132791321e-02  1.49563276000