<?xml version="1.0"?>
<VTKFile type="UnstructuredGrid"  version="0.1"  >
<UnstructuredGrid>
<Piece  NumberOfPoints="6486" NumberOfCells="12696">
<Points>
<DataArray  type="Float64"  NumberOfComponents="3"  format="ascii">0 5 0  0 0 0  5 0 0  5 5 0  2.5 0 0  5 2.5 0  2.5 5 0  0 2.5 0  2.5 2.5 0  0 1.25 0  1.25 0 0  1.25 5 0  0 3.75 0  5 1.25 0  3.75 0 0  5 3.75 0  3.75 5 0  3.541666666666667 1.458333333333333 0  1.458333333333333 3.541666666666667 0  1.875 1.25 0  3.75 3.125 0  1.284722222222222 2.326388888888889 0  2.683189655172414 3.767959770114943 0  0.9375 0.9375 0  4.0625 4.0625 0  0.7252209595959597 3.026357323232324 0  2.763480392156863 0.9129901960784315 0  1.875 4.345238095238095 0  4.345238095238095 1.875 0  4.192708333333333 0.8072916666666664 0  0.8072916666666665 4.192708333333334 0  3.368055555555555 2.326388888888889 0  0.6837606837606839 1.738782051282051 0  3.285485245626782 4.324328415208927 0  2.551239698778062 1.693130150610969 0  1.827256944444444 2.868923611111111 0  3.464875022477093 0.6813924607921316 0  1.942880513719175 2.059558626187995 0  3.04563492063492 2.971230158730159 0  4.375 3.4375 0  2.13639445139758 0.5994472256987903 0  4.272228422619047 2.606956845238095 0  0.625 0 0  0 0.625 0  5 4.375 0  4.375 5 0  0.6400043240752655 2.384646170113389 0  1.347691225855598 1.660875475110776 0  3.515783617857982 3.723905460714006 0  3.125 0 0  1.875 0 0  0.625 5 0  4.375 0 0  5 1.875 0  0 1.875 0  0 3.125 0  1.875 5 0  5 0.625 0  0 4.375 0  3.125 5 0  5 3.125 0  1.489644181965304 0.6007147273217681 0  2.054597701149425 3.742302955665024 0  2.662520990197781 4.39452575763237 0  2.415835363784578 3.165530021913244 0  0.8679986894865213 3.602373689486522 0  1.267459753787878 2.886186079545454 0  4.099702380952381 1.365327380952381 0  1.316964285714286 4.438244047619047 0  3.7915135293491 1.959691594758709 0  2.875141124191255 2.118761176511833 0  3.00418010501169 1.397414179299248 0  0.4081721322167092 3.410647930198662 0  0.4166666666666666 0.9375 0  1.014190407998288 0.4422301359994293 0  1.383260571305984 1.162718286082048 0  4.53125 3.90625 0  4.453125 4.453125 0  3.772848162504192 4.48678272083473 0  2.8125 0.404329517041716 0  0.4538690476190476 0.4538690476190476 0  2.305461739347387 1.04517007574828 0  3.771263799175824 2.624190260297553 0  3.229617768018734 1.809956994202883 0  3.780190884441317 1.025307111692601 0  4.646337365591398 0.9375 0  4.537623451379149 0.4609485750426037 0  1.200477888421151 3.934852888421152 0  0.3536626344086022 4.0625 0  0.4623765486208503 4.539051424957397 0  4.0625 0.353662634408602 0  4.560525106689535 1.390989100915847 0  3.958439078571988 3.619844539285994 0  4.672619047619047 2.1875 0  2.1875 4.672619047619047 0  1.862808494877602 3.325947624431087 0  0.3268135998175443 2.8125 0  4.674181280189791 2.8125 0  2.283233994935276 4.138623547175983 0  0.9375 4.677879119362977 0  3.08488061581743 3.469889594488945 0  3.113427375573758 3.913955730709506 0  1.652847799068813 3.950848935641292 0  2.932652662909449 2.550542739521724 0  3.311350648514189 1.088831994878698 0  0.6770833333333333 1.295851139601139 0  0 1.5625 0  1.047214787840024 1.96818092308125 0  4.183331482095785 3.03958703580843 0  3.4375 5 0  1.071307777252521 3.246275861010018 0  0 2.1875 0  0.386576856303419 2.03125 0  1.713862716483534 2.439783116849799 0  1.775396256975935 1.665976816304977 0  2.231236976948428 1.443917394671254 0  2.373900732409897 2.086930260150635 0  4.114918237574474 2.221646174618671 0  3.661302567757379 4.099620139144836 0  3.378215938602977 2.734494874063393 0  0.9842097536079312 2.597286741306247 0  1.642795138888889 4.672619047619047 0  4.0625 5 0  2.099458800960004 2.567446522665629 0  2.616202751603346 1.297895893940078 0  5 4.6875 0  0.9937554350075428 1.512592975947215 0  2.8125 5 0  3.002695327068194 4.614055254615477 0  3.205627424097207 0.3852436382721472 0  1.678616581261621 0.927556612265266 0  3.365326698305438 3.196943731162083 0  1.554834936170314 3.120009882655813 0  3.108408340729323 0.7797187795784133 0  3.684368918102174 0.3728877601163941 0  2.716214835303553 3.39276351922003 0  2.37718583984784 3.551973401560441 0  0.3750662445374837 1.52191994866787 0  2.679073487930202 2.844160731602957 0  1.557635869750078 1.991068682985722 0  1.812595698561088 0.3839273018252746 0  2.512014721281916 0.6320641118792227 0  2.1875 0 0  2.349973454443689 0.3189980586887866 0  4.6875 3.59375 0  4.636052949022233 3.178355898044465 0  4.6875 5 0  3.345485909784306 4.665765449101383 0  0.536727472389443 3.749603193819277 0  4.349541499640203 1.116201826262156 0  2.886559045931982 1.774013674579691 0  0.6770833333333334 0.7142857142857143 0  1.5625 0 0  4.120842096538671 4.628726497527622 0  2.176157474177018 1.793470423744689 0  2.175650736889416 2.909863021769539 0  4.036616464259081 1.709699085170981 0  3.887974623473683 0.6492597046022868 0  3.4375 0 0  3.70675699592552 2.289666624772415 0  4.697265625 4.208984375 0  2.815177577303495 4.085937578239174 0  4.672619047619047 1.730733296184288 0  4.6875 0 0  5 0.3125 0  0.3125 5 0  0 4.6875 0  0.3276089296588581 2.484526834811734 0  0.712433309515852 2.065138854645612 0  0.6376435912223634 2.711473454001295 0  1.184991292170422 0.7222504400947201 0  1.31884329779317 0.3206944232264773 0  3.683609198994263 3.44428698533042 0  0.3125 0 0  0 0.3125 0  4.231797269642997 3.789141808928991 0  1.564375596050781 1.425998687184973 0  2.007640894175573 0.9032106925568466 0  0.955125897558294 2.276666098587227 0  1.43898735721003 2.611310720271951 0  1.954491523717513 4.040700257877075 0  1.752947649777421 3.652439445419346 0  2.509575750247638 4.678021307664052 0  4.687194709705067 2.499965519538002 0  1.5625 5 0  0.9375 5 0  5 2.8125 0  2.1875 5 0  5 1.5625 0  5 2.1875 0  4.0625 0 0  5 0.9375 0  2.8125 0 0  0.9375 0 0  0 0.9375 0  0 2.8125 0  0 3.4375 0  0 4.0625 0  5 3.4375 0  5 4.0625 0  4.010848109290813 3.306446973933037 0  0.3077461147713075 3.119700563473354 0  4.6796875 4.6796875 0  2.333079012424948 3.845757959077508 0  0.7829771267899832 3.317744656243421 0  1.159100632608513 3.532487125138763 0  0.799066251840424 3.893573750162776 0  1.57326499580282 4.255438189102632 0  0.7309366047093668 0.2991402264438908 0  0.3054777494262156 1.223275888123843 0  4.027475154280377 2.78211326942427 0  2.35270874745988 4.426658168476266 0  3.474236283732569 2.021154281686229 0  4.401414236174444 2.329446628171927 0  3.39403781747337 3.987097102903034 0  1.077524329801934 1.214100792470484 0  4.065611571711903 1.066085524514197 0  2.165399002716117 3.335637450367864 0  3.007639563081306 1.093684039371638 0  4.030818285732145 4.351883315180857 0  3.504115222530889 1.739284194222036 0  1.224503368215566 4.712091441401919 0  3.805634204685714 1.321528442399996 0  4.319233123479386 1.573547993867769 0  1.024007670021325 4.394604704797005 0  3.776400432023095 3.839003324979723 0  2.991819819453308 4.320567175146181 0  0.9782797534072181 2.886406017887129 0  1.763835134082104 0.6602345487826022 0  3.765182288741625 1.631193038541544 0  2.267959593989681 2.345053543725764 0  4.412434895833333 4.168294270833333 0  4.4072265625 4.7255859375 0  2.791493971314009 3.11210833271929 0  3.408766223032414 3.469500900677365 0  1.915147569444444 4.725484476461039 0  2.070301968506271 0.2605666686358055 0  2.767932250651506 1.530295992695836 0  3.280065043173439 1.364863281105779 0  4.45101570110842 2.974157152713635 0  3.521928862999512 2.96990445010402 0  2.552921961347576 4.008414007169315 0  0.2682955376854191 3.657555015841003 0  3.084522868361304 2.310593316718068 0  2.669255823227708 1.939379494498064 0  2.615884629473921 2.238841231570381 0  1.405652091971449 0.8877813821442277 0  3.25151486618811 3.68536115104276 0  1.963741569810629 2.331207252264507 0  4.017297980292599 2.486269171379106 0  3.869168920841219 4.748188103831625 0  3.596868753579134 4.77342723825056 0  2.41262958240343 2.764128584995838 0  1.266750578673391 1.404747710001619 0  1.559243962241121 2.85146506328516 0  3.128799423834764 2.052081657715259 0  0.6770833333333333 0.9778025793650794 0  0.2083333333333333 0.78125 0  1.978224492765132 3.087074731032578 0  4.051448850909273 1.969392119104174 0  1.320577095006813 4.172234780971559 0  3.214261103850064 2.534397293281829 0  0.2635729089754111 1.779234736680035 0  3.510775680035133 4.460728640112889 0  2.603081405968802 0.2432579385496493 0  2.866341315154884 0.6662105505481998 0  3.000919221100777 0.2270278495648781 0  1.298858304121393 2.05917319923859 0  2.020292299736597 1.589794568392338 0  0.7401688396476035 4.470780315741533 0  0.6721783535561408 4.733125588707921 0  3.753712482075402 2.874301339727514 0  3.557348205914658 2.491958694539413 0  1.094565978195436 0.2011034254079851 0  0.9338148378011396 0.6833568465908735 0  2.945530578578538 3.701798332963805 0  3.111707186654356 3.216904195825605 0  1.341791111822685 3.293123262233967 0  1.632939924064587 1.184895891095613 0  0.6335477978936732 3.517393619499591 0  0.5576014611130192 3.210998966942492 0  1.564344196470102 0.3630498725895039 0  2.75362450242839 4.626680495816594 0  3.571304405229554 1.192452351107437 0  3.522934592621944 0.9359134489437148 0  4.453125 3.671875 0  4.765625 3.828125 0  1.055906321410838 4.14310472322957 0  4.795146539102229 0.46875 0  4.767156345199235 0.7178596932040019 0  0.2048534608977711 4.53125 0  0.232843654800765 4.282140306795998 0  0.5393715189906129 4.270810883024032 0  4.329922600274667 0.2750645887059072 0  4.275515096738972 0.5448389557295173 0  4.477747423652795 0.7252838358993123 0  0.2002829820452772 0.46875 0  0.4352678571428572 0.6956845238095237 0  0.5007241582667088 0.2123388122114133 0  4.672890923830735 0.2500902110494848 0  0.4308009280819452 4.783624996516437 0  2.104871305393774 4.438653689007242 0  0.2274454167838428 0.2274454167838428 0  3.446466574593436 0.4359605369011901 0  2.12354112127588 1.217588426759619 0  2.309175236825235 0.7888355970690434 0  2.556178570281936 1.054299163237582 0  0.578683248637
[...]
<PointData  Scalars="f_800-1"> 
<DataArray  type="Float64"  Name="f_800-1"  format="ascii">2.4853928848593897e-02  4.4106192325305486e-02  2.4125990057348463e-02  2.3914330729892484e-02  3.4177955014060471e-02  2.4106136683267325e-02  2.4540034882121770e-02  3.4546706690222376e-02  3.4169190094741314e-02  3.9571839721559247e-02  3.9234362393085628e-02  2.4425159704749160e-02  2.9466327662879408e-02  2.4106679215459524e-02  2.9133780339295874e-02  2.4136107800165448e-02  2.4482490775764688e-02  2.9954015133263817e-02  3.0339368952219659e-02  3.6712746213359376e-02  2.9149796939911887e-02  3.5217780354435166e-02  2.9415797006027512e-02  4.0588267103116651e-02  2.7720069908179157e-02  3.2415861801510792e-02  3.3095823915123251e-02  2.7157958254070778e-02  2.6728460488847059e-02  2.7315997519089235e-02  2.7844621153610586e-02  3.0698456693080096e-02  3.7590203397558433e-02  2.7189275217814227e-02  3.3983144360282783e-02  3.3032170786707601e-02  3.0254702868934166e-02  3.6399135789178270e-02  3.1961482189824766e-02  2.6641323843084885e-02  3.5643206460597578e-02  2.7027025869561211e-02  4.1759357047358045e-02  4.2084037271855730e-02  2.4155901181851801e-02  2.4600588108101416e-02  3.5012236695099050e-02  3.8328392888210765e-02  2.9613951776705845e-02  3.1612670571080012e-02  3.6683678805954571e-02  2.4733506032123827e-02  2.6609377034345329e-02  2.4080023368817156e-02  3.7053512796174214e-02  3.2005375943639731e-02  2.4511949347130080e-02  2.4116078340696411e-02  2.7288353956796550e-02  2.4512970361058747e-02  2.4110428518228023e-02  3.8264472099246133e-02  2.9547383613376482e-02  2.6906481029773662e-02  3.1911673716934506e-02  3.0083735143068915e-02  3.3005215498100926e-02  2.7697663839131258e-02  2.6746744350400364e-02  2.8969606088766187e-02  3.2678161268278286e-02  3.2141324913452875e-02  3.0855796611056401e-02  4.0827081099739142e-02  4.0188786725287577e-02  3.8656350968329055e-02  2.6021792110655997e-02  2.6115303889305160e-02  2.6611099664140533e-02  3.2905995144286534e-02  4.2270346358307821e-02  3.4981704270228030e-02  2.9079189452444604e-02  3.1248703733726263e-02  2.8989239853792544e-02  2.5507030336337003e-02  2.5956467738970038e-02  2.8743678137860905e-02  2.8203877096070060e-02  2.6287663537951193e-02  2.7859204046351071e-02  2.5826581449763159e-02  2.8297313239097528e-02  2.5404111681257186e-02  2.5835575863842612e-02  3.1208034218544491e-02  3.3281949566153254e-02  2.5397839959832708e-02  2.7946892937121080e-02  2.5730416072362795e-02  3.0811373985160598e-02  2.8895249090833616e-02  2.8696614167092224e-02  3.2438280673412548e-02  3.0879458288868459e-02  3.9383697138798093e-02  3.8314163347501179e-02  3.6661542198453051e-02  2.7423394627507768e-02  2.4499164397867073e-02  3.1523141046112410e-02  3.5795009557117681e-02  3.6475723577654481e-02  3.4800048981846139e-02  3.7136001916578169e-02  3.5273488917560727e-02  3.4699457670000808e-02  2.7647432096857515e-02  2.8236013804918213e-02  3.0650953961183728e-02  3.4142173229275027e-02  2.5766591302737007e-02  2.4506552922631600e-02  3.4503421129186390e-02  3.3733824322505580e-02  2.4110769375464074e-02  3.8636772771777593e-02  2.4531354243729656e-02  2.6045521623347164e-02  3.1298789274509152e-02  3.7504624112917488e-02  3.0698136173194748e-02  3.2052095233369604e-02  3.1707636406316846e-02  2.9357015416040688e-02  3.1034467208344445e-02  3.0284364090612820e-02  3.8466277630270405e-02  3.3191810452046368e-02  3.6913438102669588e-02  3.6950500579728471e-02  3.4108698908936017e-02  3.5418748475472404e-02  3.4754439233015182e-02  2.5378057782159784e-02  2.5565555055430692e-02  2.4498033078035133e-02  2.5792015001761766e-02  2.9463283201053441e-02  2.6677972877274348e-02  3.2651727977418436e-02  4.1708998678056872e-02  3.7964423928198633e-02  2.6080008780730930e-02  3.5490106452863532e-02  3.2938529240126080e-02  2.7954119453285346e-02  2.8536208114291511e-02  3.0370161402452578e-02  2.9319253133593879e-02  2.5330435006963997e-02  2.8154117712084772e-02  2.5382713510913514e-02  2.5351961725637456e-02  2.4125521781111506e-02  2.4895998109695228e-02  2.6023993349428943e-02  3.4596474204599367e-02  3.6283426397451704e-02  3.3680770745187397e-02  3.9499319753435035e-02  3.8954807910043493e-02  2.9406042083512673e-02  4.3023358602681062e-02  4.3308290630408169e-02  2.7198051816763335e-02  3.7959440578434207e-02  3.6177416356646980e-02  3.5426235599596428e-02  3.4084286502602305e-02  2.8353963267608581e-02  2.9899913518018458e-02  2.5794370041994485e-02  2.5342308205483055e-02  2.4548356113042808e-02  2.4499126605438133e-02  2.4115072628660351e-02  2.4507068433113503e-02  2.4085800835989737e-02  2.4089012370144131e-02  2.7869988206348905e-02  2.4127998003201576e-02  3.2885120534899837e-02  4.0492755820646625e-02  4.0823166393536427e-02  3.3267842464079010e-02  3.0735105827016856e-02  2.8106626927943468e-02  2.4123023822866345e-02  2.4143146974832545e-02  2.8100996395684835e-02  3.2028429750090390e-02  2.5189876073971679e-02  2.9125118304211887e-02  3.1241334547082267e-02  3.0381707203764027e-02  2.8924810072517453e-02  2.7486998711042841e-02  4.1331445766608570e-02  3.9669156603611616e-02  2.8038960926364740e-02  2.6832021224950722e-02  3.0257756232403742e-02  2.6486377250078453e-02  2.8672133117433694e-02  4.0089416878735046e-02  2.7827630783272449e-02  3.1155687957418982e-02  3.2115045608231710e-02  2.7147061587050974e-02  3.0118490078783724e-02  2.5700305370508804e-02  2.8895086042510346e-02  2.6812909014813417e-02  2.6998050024831070e-02  2.8820491463940126e-02  2.7186999939967722e-02  3.2983293414164630e-02  3.7161457906423244e-02  2.9051158115228459e-02  3.5075645261549257e-02  2.6445757750740838e-02  2.5604143708726129e-02  3.2271331421387467e-02  3.0349517577068916e-02  2.5578441358429519e-02  3.5900252490421267e-02  3.3113710586514432e-02  3.1017825380197251e-02  2.6312147600662830e-02  3.0064181682006610e-02  2.8455607376461578e-02  2.9846533149308026e-02  3.1836717647338329e-02  3.3507785037938637e-02  3.3723296027078270e-02  3.8606039481771041e-02  2.9931938701181302e-02  3.5526318601781404e-02  2.8061411180114539e-02  2.5507720011289411e-02  2.5369716200942603e-02  3.3730108615644620e-02  3.9261452415440538e-02  3.3115619596442339e-02  3.1665077258180963e-02  4.1307078602495724e-02  4.1442045344612488e-02  3.2155745934156578e-02  2.7905472659326878e-02  2.7799901595795002e-02  3.1310463280002844e-02  3.7435738701257174e-02  2.6647955476894376e-02  3.3753041865622141e-02  3.2674670884767568e-02  3.2127364117823930e-02  3.6301329976339870e-02  3.6115930998844359e-02  2.6559569651629349e-02  2.5512850020352681e-02  2.9138496754509104e-02  2.9942453038802570e-02  3.9860727276996799e-02  4.0469318777492151e-02  2.9758091949036902e-02  3.1514516171527000e-02  3.1347062463357549e-02  3.7681774073175398e-02  3.0438506160613714e-02  3.1668331706393937e-02  3.7967335000088059e-02  2.5983947427871128e-02  2.9835691403373409e-02  3.0040289721979696e-02  2.6322936892327481e-02  2.5071376824745244e-02  2.7925204613876278e-02  2.4909026598630597e-02  2.5041993855618176e-02  2.6596088283556075e-02  2.7299130675170258e-02  2.7369358949942160e-02  2.6794122631787640e-02  2.7001173673857334e-02  2.6187755359183457e-02  4.4045414202864591e-02  4.2771367727161745e-02  4.2258662137794785e-02  2.5412115197655880e-02  2.5574291406886666e-02  2.6768214729575749e-02  4.3051595529896465e-02  3.0314914790862707e-02  3.5708092165278239e-02  3.4955687628431702e-02  3.3967286323333901e-02  2.8606359050542457e-02  3.1026887756221692e-02  3.5552193623783951e-02  2.8926045073151774e-02  2.8659321576571577e-02  2.5107547777832123e-02  2.5001347731904166e-02  2.5047149429006866e-02  3.9480977429593903e-02  2.9340248535957344e-02  2.9329333811478883e-02  3.1872558257638420e-02  2.6687862671637860e-02  3.1829737229954483e-02  2.9365012143162832e-02  3.7537257126952342e-02  3.1103868996078976e-02  3.0367975923979815e-02  2.6735107334856543e-02  3.7331199074985347e-02  2.6296183907486111e-02  2.7529001860390406e-02  3.5466567550385970e-02  2.4996756798394731e-02  3.8943063199794299e-02  3.4326765938392026e-02  2.7542033112967265e-02  2.8080311698141430e-02  2.8198104242592607e-02  2.5175455678941899e-02  3.2884112731650400e-02  3.3914493881758496e-02  2.4740744377179890e-02  2.6082351461741912e-02  3.6314918922078887e-02  3.0987458077781447e-02  3.0862478372475868e-02  2.7568817738037869e-02  2.9735078910158266e-02  2.4750488773821702e-02  2.8052936898672328e-02  3.2887519422000723e-02  2.5358616609352392e-02  3.4023374435275783e-02  3.8479182435477412e-02  4.0595166811721033e-02  4.0010407250226129e-02  3.0879663167807186e-02  3.1376722143398567e-02  3.5163707882649262e-02  2.4739491938818060e-02  2.4743667202322135e-02  2.5125492857774778e-02  2.5592077413765880e-02  2.4582092903144469e-02  2.8275032833932796e-02  2.7025837038864409e-02  3.3030206993258239e-02  2.5195129513559147e-02  3.1888132460795957e-02  2.7781979742972498e-02  2.7974751263941885e-02  2.9089451302775602e-02  3.3359399321281548e-02  3.2686660708067583e-02  4.1092209191851116e-02  2.6805388668479528e-02  3.1413239948198619e-02  3.5692728351407778e-02  3.4611271954252322e-02  2.5136687141398075e-02  3.7211872267263572e-02  3.7073778990104084e-02  3.8046276202351598e-02  3.6445655483269890e-02  2.8326168569753347e-02  3.3889665904281628e-02  3.0304065760772703e-02  3.2014005492869008e-02  2.8755319743810778e-02  2.7586920909644555e-02  2.5867638886757655e-02  3.2216573580187841e-02  3.4106042055607515e-02  3.9363352279309899e-02  2.6683387416147748e-02  3.7235956303436062e-02  3.7224459922851331e-02  2.6789115472202443e-02  3.2599565175579610e-02  3.1031667696302164e-02  2.5762661648596103e-02  3.3512842171088783e-02  4.0485411989489968e-02  3.6652986207389264e-02  2.8469455235854972e-02  2.7132197789042647e-02  3.2576314083175809e-02  2.7270758201589036e-02  2.5477794237314961e-02  3.2121455312690672e-02  3.7971436032019960e-02  2.4701265706852923e-02  3.4661197002550180e-02  3.4298400474876894e-02  3.4842232177706420e-02  2.6580605124705205e-02  3.0790188620832278e-02  3.2144878736704137e-02  2.9795001488543769e-02  3.9560860374022989e-02  3.5790113509399812e-02  2.4450362034884779e-02  3.4576364298556726e-02  2.8956790195634220e-02  2.9081757514668811e-02  2.6615598548763043e-02  3.3621725655017691e-02  3.4754863074703851e-02  2.9605341071400077e-02  3.0011813617739497e-02  2.8969906356477868e-02  2.8275715283635695e-02  3.8591684906660435e-02  3.2791266876007023e-02  2.5132320650986906e-02  2.6129754578624643e-02  2.7813513881306422e-02  3.4065516572104923e-02  2.8487004545827043e-02  3.2946106100232318e-02  2.7994440090166103e-02  3.8289852102052796e-02  2.5927512020047574e-02  3.0620566930469162e-02  3.5713812617986611e-02  2.9569564944918983e-02  2.5072795236833326e-02  3.7510658213353129e-02  3.0941420696762548e-02  3.2920131075841366e-02  3.6461972369611684e-02  2.5981904553202775e-02  3.1081061606205957e-02  3.5836496929020155e-02  2.6587304609236907e-02  2.5348371896421251e-02  2.6210255577458590e-02  2.4501034817942427e-02  3.6129625932695468e-02  3.8593661977500575e-02  3.3847180742343018e-02  3.8172435418571411e-02  3.0549917358991041e-02  3.1493047445588007e-02  3.4340953320184796e-02  2.7245294734270585e-02  2.7484086241846607e-02  3.3571300803278484e-02  2.6348918797239499e-02  3.6812646364106576e-02  3.1533198903635255e-02  3.9207669525491408e-02  2.8609556585901010e-02  3.7977243458388758e-02  3.7052056359922099e-02  3.4843929233953075e-02  3.3423937179953102e-02  3.3430951561763199e-02  3.0224384602501122e-02  2.9544390308275721e-02  3.1686369929524297e-02  4.0568498722829492e-02  2.4589584687146872e-02  2.6282804243489822e-02  2.6201899952792228e-02  2.6275062513602995e-02  3.4960797663659261e-02  2.4512425613548498e-02  3.8123768978138163e-02  3.5464361112757851e-02  3.4834759484943738e-02  2.7356789602607387e-02  3.2476504599653767e-02  3.2407596875370759e-02  2.7326705432073314e-02  3.1988564829303401e-02  2.4077037422851149e-02  2.5481160496008549e-02  2.8825586133449856e-02  2.7191909996337860e-02  2.9227187475074180e-02  2.7121579678147226e-02  2.8223295232556733e-02  3.1244397162741508e-02  3.4475515158740602e-02  4.1126768563164703e-02  2.4114680682524224e-02  2.4796359964907450e-02  2.5189265926637016e-02  3.6623215686690996e-02  2.9794635339182432e-02  3.0154763112131975e-02  2.9675899912197622e-02  2.5354263530799108e-02  3.6221130731261597e-02  2.7653314459560700e-02  3.6284197421256700e-02  3.6139120558754470e-02  2.8293546089129915e-02  3.0098724275838904e-02  2.8604038151731567e-02  2.5074978647389935e-02  2.5118125755002753e-02  3.5217461135164378e-02  3.7618769103747236e-02  3.3574444859398277e-02  2.5687792906347671e-02  2.6814504088365630e-02  2.9406207817694624e-02  3.0050573452384158e-02  2.9544442548571442e-02  2.8873155329016988e-02  2.8201867662860067e-02  2.7013318580053240e-02  2.7259302566550524e-02  3.4393336205053644e-02  2.4104453185294153e-02  2.7422565089612116e-02  2.7591139308480079e-02  2.8407394350680151e-02  2.4741034834319695e-02  2.5694168758028036e-02  2.4834909464117969e-02  2.4105261140145242e-02  2.7303533479930198e-02  2.7211491066460130e-02  3.5739289673647159e-02  3.5613175850343591e-02  3.0982707461215363e-02  2.6476247857880070e-02  2.5160526750124881e-02  3.0627563164746737e-02  2.4730125045106084e-02  2.5928290729606302e-02  3.3341206145950680e-02  3.2798160323283219e-02  2.5635516115369940e-02  2.6928598776721709e-02  3.0598619708696487e-02  3.6818995693584128e-02  2.8483237175932680e-02  2.6141886108613975e-02  2.6096266134845777e-02  4.2037500723307392e-02  4.2078048205123682e-02  4.1026809380470645e-02  2.9660127137210036e-02  2.4725118725273887e-02  3.0047764944223343e-02  3.7681695380204730e-02  2.4745398474760781e-02  2.6069197236490146e-02  3.1992972818978650e-02  3.0510661585306544e-02  2.7459249703474877e-02  2.4709218439405170e-02  3.2018586226929248e-02  2.6099971669541804e-02  2.4784037042587203e-02  3.7938597712596493e-02  3.2451239522831195e-02  3.0943779661914503e-02  2.6047642225544971e-02  2.4715620986749683e-02  3.0357065444073000e-02  2.9398938963958503e-02  3.9613437036745344e-02  3.1529318738413047e-02  2.4138085158420339e-02  3.3851159316654028e-02  3.6595963545531920e-02  3.3650942595886080e-02  3.0531523205616831e-02  3.4338731808807879e-02  3.3981940220141185e-02  3.5470459418335008e-02  2.6078922584184771e-02  2.9114226351693449e-02  4.1729483469019703e-02  3.3686701667715264e-02  3.8792642244155948e-02  3.9205282119984593e-02  3.8709291889519118e-02  3.9910760854140796e-02  3.9939799537547380e-02  2.4733318346585337e-02  2.4085385833008333e-02  3.3208063978509915e-02  3.2804175373790573e-02  3.3330424024575221e-02  3.3054289526077488e-02  4.2550086739207293e-02  2.9818713109271450e-02  2.5595583351776509e-02  3.6054046754997279e-02  2.6563559188163263e-02  2.6110303121069024e-02  2.5855177132455148e-02  2.8758266820615930e-02  2.6671085056449984e-02  3.5492384316038704e-02  2.7647233787765107e-02  3.2455192051497286e-02  2.6310316273034279e-02  2.5808749703420220e-02  4.3617674496180994e-02  4.3358076620145312e-02  2.7419640682023381e-02  3.3522179289310235e-02  2.5558837643254433e-02  4.2794551064731144e-02  2.7742801642600793e-02  2.4664174892033465e-02  3.8555323446406706e-02  3.8687545530516322e-02  3.0609750511983114e-02  2.7722555983262408e-02  3.1586574771001505e-02  3.5592913303058339e-02  2.4490248972236936e-02  4.1649202836141881e-02  2.6397844211263996e-02  2.7864862021129828e-02  3.6294329852769952e-02  2.6976971935531020e-02  4.0194876318887504e-02  3.1017034816450306e-02  2.7316790958490073e-02  2.8133705229572308e-02  2.9700148407032625e-02  2.7809807031850382e-02  3.0353624851247440e-02  3.1458102263711013e-02  3.4758169683263646e-02  3.0055211782097947e-02  2.8476506124693875e-02  2.5369487319899534e-02  2.4693301321511148e-02  2.7573940223462847e-02  3.4539921334740584e-02  2.5130885058880458e-02  2.4713353641522204e-02  3.4798029595027070e-02  2.4592935355751119e-02  2.4544274339125767e-02  2.4582236321686251e-02  2.5395438514305632e-02  2.4805064852659167e-02  2.4581842416434754e-02  3.1367323168534765e-02  2.4611532293208060e-02  2.4116643132772154e-02  2.9753871677675379e-02  3.0991807935951889e-02  2.4098596557392535e-02  2.4111462655134145e-02  2.4112826349171852e-02  3.6425781778056283e-02  3.5170485044267744e-02  3.3910577753771515e-02  2.4516585849834096e-02  3.8946744967637899e-02  3.7331840262439298e-02  2.8497961011205039e-02  2.8819709867836944e-02  2.4826635910387470e-02  4.2389448038280528e-02  2.6678019896759643e-02  2.4126402618297994e-02  3.9863106370749607e-02  3.2252476734597121e-02  4.2656509027473428e-02  4.1448946931949754e-02  2.4478666677359772e-02  2.4133417416820128e-02  2.4069697708252791e-02  2.4283023048768140e-02  3.2639384339426099e-02  2.4517706821182591e-02  4.0201928734799997e-02  2.4133052758506367e-02  2.4166316944084002e-02  2.4118740883056565e-02  2.8933030283911816e-02  2.6908556427778094e-02  3.1490778759674459e-02  2.5135749694665505e-02  3.2366240201633971e-02  2.5264905016233123e-02  3.9339862590803340e-02  3.9590384112336792e-02  4.0497699369241129e-02  2.6120791916644664e-02  4.0810978909812348e-02  3.7583517465998716e-02  3.9868113474327449e-02  2.8361990808135625e-02  3.4424318224433155e-02  3.5591702914815164e-02  2.7762347721109613e-02  3.2655445457839861e-02  3.2068121255066112e-02  3.1502221543708006e-02  3.3907241681586972e-02  3.9059694719272606e-02  4.0221295342165828e-02  2.6010072623750904e-02  2.9604250980805945e-02  2.8962459358638424e-02  2.6706763210556542e-02  3.8749070303576078e-02  2.4778515108599894e-02  3.2248134215001667e-02  2.8124869107696977e-02  3.5431913384461500e-02  3.6940906503612737e-02  3.2724648237357809e-02  2.8556017981454056e-02  3.2557617887361251e-02  3.6124343291453122e-02  3.5598191541810965e-02  2.8760514021921472e-02  2.5703627628558032e-02  3.7278546990054000e-02  2.6837951118963803e-02  2.6364694439743586e-02  3.2763332749970432e-02  3.0645074739437249e-02  3.7284813987306847e-02  3.0231300658845526e-02  3.8925880134082221e-02  2.6104125774606402e-02  3.1039873063734846e-02  3.0695713375026801e-02  2.7442700037527686e-02  2.8690397606491402e-02  2.8437587390894772e-02  2.7606771312515169e-02  2.7709894302554567e-02  2.7262274370277690e-02  3.3300379111578293e-02  2.8090349751583421e-02  3.0202440394349321e-02  3.3740561416088506e-02  2.9516931532864828e-02  2.9174459229298164e-02  2.5641380600593310e-02  3.2248475218670886e-02  2.9533950140303460e-02  2.9193591915043268e-02  2.7883215485426289e-02  2.8562347411622301e-02  3.1796173701458853e-02  3.1536307636875580e-02  3.0675056697208901e-02  3.5075400079996495e-02  2.6750926818886977e-02  2.6412432454249145e-02  2.6311652544607794e-02  2.6781001962830182e-02  2.7174506774078646e-02  2.6417354053449124e-02  2.6048532602504816e-02  3.1537115796553501e-02  3.2493115912395946e-02  2.6164005615970074e-02  2.4865283368879627e-02  2.6625079572166609e-02  3.0735017621981917e-02  3.3044337767685443e-02  3.4883818206628704e-02  3.1235375432832290e-02  2.8069611546240974e-02  3.7566941511793794e-02  3.3504350667785919e-02  2.5809624970549224e-02  3.8104993368503384e-02  2.8952908340892120e-02  2.7425123435381640e-02  2.7033781034252077e-02  2.4778880165220764e-02  2.7190307700799408e-02  2.5233829226303559e-02  3.2980794606151519e-02  3.1697839421443968e-02  3.3054094305910768e-02  3.4165473440850407e-02  2.8680367986324926e-02  2.8464607921065650e-02  2.9844021388792673e-02  2.5598625226969544e-02  3.4659133730402261e-02  3.1583465527629237e-02  3.3017196196257877e-02  3.3582135345677395e-02  2.6288553720956842e-02  2.5024776917112829e-02  2.8430183339029549e-02  2.5033170995853202e-02  2.8343824549645409e-02  2.5663285700770085e-02  2.5780738234064845e-02  2.7604690192768632e-02  3.1596583973650595e-02  2.5594741987096967e-02  2.7439571133753237e-02  2.8599292182157933e-02  2.6105414998311625e-02  2.6724016543414133e-02  2.7223836470193899e-02  2.5930960281660365e-02  3.39979169078