<?xml version="1.0"?>
<VTKFile type="UnstructuredGrid"  version="0.1"  >
<UnstructuredGrid>
<Piece  NumberOfPoints="6454" NumberOfCells="12638">
<Points>
<DataArray  type="Float64"  NumberOfComponents="3"  format="ascii">0 1.5 0  0 0 0  1.5 0 0  1.5 1.5 0  0.75 0 0  1.5 0.75 0  0.75 1.5 0  0 0.75 0  0.75 0.75 0  0 0.375 0  0.375 0 0  0.375 1.5 0  0 1.125 0  1.5 0.375 0  1.125 0 0  1.5 1.125 0  1.125 1.5 0  1.0625 0.4375 0  0.4375 1.0625 0  0.5625 0.375 0  1.125 0.9375 0  0.3854166666666667 0.6979166666666666 0  0.8049568965517241 1.130387931034483 0  0.28125 0.28125 0  1.21875 1.21875 0  0.2175662878787879 0.9079071969696969 0  0.5625 1.303571428571429 0  0.8290441176470589 0.2738970588235294 0  1.303571428571429 0.5625 0  1.2578125 0.2421875 0  0.2421875 1.2578125 0  1.010416666666667 0.6979166666666666 0  0.2051282051282051 0.5216346153846153 0  0.9856455736880344 1.297298524562678 0  0.7653719096334186 0.5079390451832908 0  0.5481770833333334 0.8606770833333333 0  1.039462506743128 0.2044177382376396 0  0.5828641541157527 0.6178675878563986 0  0.9136904761904763 0.8913690476190476 0  1.3125 1.03125 0  0.6409183354192741 0.1798341677096371 0  1.281668526785714 0.7820870535714286 0  0.1875 0 0  0 0.1875 0  1.5 1.3125 0  1.3125 1.5 0  0.1920012972225798 0.7153938510340165 0  0.4043073677566794 0.4982626425332328 0  1.054735085357395 1.117171638214202 0  0.9375 0 0  0.5625 0 0  0.1875 1.5 0  1.3125 0 0  1.5 0.5625 0  0 0.5625 0  0 0.9375 0  0.5625 1.5 0  1.5 0.1875 0  0 1.3125 0  0.9375 1.5 0  1.5 0.9375 0  0.4468932545895913 0.1802144181965304 0  0.7987562970593343 1.318357727289711 0  0.6320399113235965 1.037924776639822 0  0.2603996068459564 1.080712106845956 0  0.3802379261363636 0.8658558238636362 0  0.3950892857142857 1.331473214285714 0  1.229910714285714 0.4095982142857143 0  1.13745405880473 0.5879074784276126 0  0.7482946595664349 0.917427298948138 0  0.8625423372573767 0.63562835295355 0  0.9012540315035069 0.4192242537897745 0  0.6862861647268528 1.220560482834343 0  0.1224516396650128 1.023194379059598 0  0.125 0.28125 0  0.3042571223994863 0.1326690407998288 0  0.4149781713917952 0.3488154858246145 0  1.359375 1.171875 0  1.3359375 1.3359375 0  1.131854448751258 1.346034816250419 0  0.84375 0.1212988551125148 0  0.1361607142857143 0.1361607142857143 0  0.691638521804216 0.3135510227244841 0  1.131379139752747 0.7872570780892659 0  0.9688853304056201 0.5429870982608649 0  1.134057265332395 0.3075921335077801 0  0.1060987903225806 1.21875 0  0.1387129645862553 1.361715427487219 0  1.393901209677419 0.28125 0  1.361287035413745 0.1382845725127811 0  1.21875 0.1060987903225807 0  0.3601433665263453 1.180455866526345 0  0.5483798738512705 1.157949853770241 0  1.36815753200686 0.4172967302747542 0  1.187531723571597 1.085953361785798 0  1.401785714285714 0.65625 0  0.65625 1.401785714285714 0  0.09804407994526333 0.84375 0  1.402254384056937 0.84375 0  0.28125 1.403363735808893 0  0.925464184745229 1.040966878346683 0  0.9340282126721275 1.174186719212852 0  0.8797957988728348 0.7651628218565172 0  0.9934051945542568 0.3266495984636094 0  0.203125 0.3887553418803418 0  0.3141644363520071 0.590454276924375 0  0 0.46875 0  1.254999444628736 0.9118761107425289 0  1.03125 1.5 0  0.3213923331757561 0.9738827583030052 0  0 0.65625 0  0.1159730568910257 0.609375 0  0.5141588149450601 0.7319349350549398 0  0.5326188770927806 0.499793044891493 0  0.6693710930845284 0.4331752184013763 0  0.7121702197229691 0.6260790780451906 0  1.234475471272342 0.6664938523856012 0  1.098390770327214 1.229886041743451 0  1.013464781580893 0.8203484622190179 0  0.2952629260823795 0.7791860223918741 0  0.4928385416666666 1.401785714285714 0  1.21875 1.5 0  0.6298376402880013 0.7702339567996885 0  0.7848608254810038 0.3893687681820236 0  1.5 1.40625 0  0.4622923140598757 1.236370233688302 0  0.4667991207677928 0.9473088592382519 0  0.2981266305022628 0.4537778927841646 0  0.84375 1.5 0  0.9008085981204581 1.384216576384643 0  0.9616882272291621 0.1155730914816442 0  0.5035849743784865 0.2782669836795798 0  1.009598009491631 0.9590831193486247 0  1.105310675430652 0.1118663280349183 0  0.9288474621627256 0.2227857609567891 0  0.7464170347051563 1.031945227193052 0  0.1125198733612451 0.4565759846003609 0  0.841690222029119 0.9722978654718903 0  0.4672907609250232 0.5973206048957169 0  0.5437787095683263 0.1151781905475824 0  0.7536044163845748 0.1896192335637668 0  0.65625 0 0  0.7049920363331066 0.09569941760663599 0  1.40625 1.078125 0  1.39081588470667 0.9535067694133395 0  1.40625 1.5 0  0.6375104178177308 0.9268732242701165 0  1.003645772935292 1.399729634730415 0  0.1610182417168329 1.124880958145783 0  1.304862449892061 0.3348605478786471 0  0.8685031591756179 0.5174815394805063 0  0.203125 0.2142857142857143 0  0.46875 0 0  1.236252628961601 1.388617949258287 0  0.6528472422531054 0.5380411271234069 0  0.8059365139027533 0.8342920789922936 0  1.210984939277725 0.5129097255512943 0  1.166392387042105 0.1947779113806861 0  1.03125 0 0  1.112027098777656 0.6868999874317245 0  1.4091796875 1.2626953125 0  0.7056210334910562 1.122831931927321 0  0.8445532731910484 1.225781273471752 0  1.401785714285714 0.5192199888552865 0  0.5315992325579575 1.02511262900491 0  1.40625 0 0  1.5 0.09375 0  0.09375 1.5 0  0 1.40625 0  0.09828267889765753 0.7453580504435201 0  0.2137299928547555 0.6195416563936835 0  0.191293077366709 0.8134420362003882 0  0.395652989337951 0.09620832696794322 0  0.3786395303236629 0.2546156254865724 0  1.105082759698279 1.033286095599126 0  0.09375 0 0  0 0.09375 0  1.269539180892899 1.136742542678697 0  0.4693126788152344 0.427799606155492 0  0.6022922682526717 0.2709632077670539 0  0.286537769267488 0.682999829576168 0  0.431696207163009 0.7833932160815852 0  0.6864071374811688 0.8459705255349474 0  0.7528727250742914 1.403406392299215 0  1.40615841291152 0.7499896558614008 0  0.46875 1.5 0  0.28125 1.5 0  1.5 0.84375 0  0.65625 1.5 0  1.5 0.46875 0  1.5 0.65625 0  1.21875 0 0  1.5 0.28125 0  0.84375 0 0  0.28125 0 0  0 0.28125 0  0 0.84375 0  0 1.03125 0  0 1.21875 0  1.5 1.03125 0  1.5 1.21875 0  1.203254432787244 0.991934092179911 0  0.7018429057870754 1.316240552056942 0  0.09232383443139219 0.9359101690420062 0  1.40390625 1.40390625 0  0.2348931380369949 0.995323396873026 0  0.3477301897825538 1.059746137541629 0  0.2397198755521273 1.168072125048833 0  0.21928098141281 0.08974206793316726 0  0.09164332482786468 0.3669827664371529 0  0.4604861261832766 1.147925083553434 0  1.208242546284113 0.8346339808272811 0  1.042270885119771 0.6063462845058686 0  1.320424270852333 0.6988339884515781 0  1.018211345242011 1.19612913087091 0  0.3232572989405801 0.3642302377411452 0  1.219683471513571 0.319825657354259 0  0.9022918689243919 0.3281052118114913 0  1.209245485719643 1.305564994554257 0  1.051234566759267 0.5217852582666107 0  0.3673510104646698 1.413627432420576 0  1.295769937043816 0.4720643981603306 0  0.3072023010063974 1.318381411439101 0  1.141690261405714 0.3964585327199988 0  1.132920129606929 1.151700997493917 0  0.4797323103182937 1.318677829548113 0  0.8975459458359925 1.296170152543854 0  0.464209749529605 0.8633392490855897 0  0.2934839260221656 0.8659218053661386 0  0.5291505402246311 0.1980703646347806 0  1.129554686622487 0.4893579115624633 0  0.6803878781969045 0.7035160631177291 0  1.32373046875 1.25048828125 0  1.32216796875 1.41767578125 0  0.5499851861317793 0.9439128053349233 0  1.022629866909724 1.040850270203209 0  0.5745442708333333 1.417645342938312 0  0.6210905905518814 0.07817000059074161 0  0.8251326424747147 1.051763251304391 0  0.9840195129520318 0.4094589843317338 0  1.335304710332526 0.8922471458140904 0  1.056578658899854 0.8909713350312058 0  0.6311277392046407 1.158870891931624 0  0.08048866130562571 1.097266504752301 0  0.7899471681381695 0.5900550615276262 0  0.787583911300231 0.6744258112570235 0  0.9253568605083915 0.6931779950154204 0  0.6069241236579608 1.236016193461046 0  0.9754544598564333 1.105608345312828 0  0.5891224709431884 0.6993621756793521 0  1.20518939408778 0.7458807514137317 0  0.7661039078070937 1.202429845202379 0  1.160750676252366 1.424456431149488 0  1.07906062607374 1.432028171475168 0  0.3800251736020173 0.4214243130004857 0  0.9386398271504294 0.6156244973145778 0  0.0625 0.234375 0  0.203125 0.2933407738095238 0  1.215434655272782 0.5908176357312523 0  0.3862873976850203 1.253958025454808 0  0.9642783311550196 0.7603191879845486 0  0.07907187269262334 0.5337704210040105 0  1.05323270401054 1.338218592033867 0  0.7809244217906405 0.07297738156489482 0  0.8538188665025647 0.1992768958275427 0  0.9002757663302332 0.06810835486946346 0  0.3896574912364178 0.6177519597715768 0  0.8312147565658268 0.4504658003252042 0  0.6060876899209792 0.4769383705177015 0  0.6973120163099531 0.973865749266754 0  0.2220506518942812 1.34123409472246 0  0.2016535060668421 1.419937676612376 0  1.067204461774397 0.7475876083618238 0  1.126113744622621 0.8622904019182541 0  0.3283697934586307 0.06033102762239553 0  0.3141768357227177 0.2102768223058998 0  0.8836591735735614 1.110539499889141 0  0.9335121559963067 0.9650712587476813 0  0.489881977219376 0.3554687673286838 0  0.1635028372004782 0.9601830799237989 0  0.190064339368102 1.055218085849877 0  0.4693032589410306 0.1089149617768512 0  0.826087350728517 1.388004148744978 0  1.071391321568866 0.357735705332231 0  1.056880377786583 0.2807740346831144 0  1.3359375 1.1015625 0  1.4296875 1.1484375 0  0.3906148988360577 0.9415494491776595 0  0.06145603826933142 1.359375 0  0.06985309644022948 1.2846420920388 0  1.438543961730669 0.140625 0  1.43014690355977 0.2153579079612006 0  0.161811455697184 1.281243264907209 0  1.2989767800824 0.08251937661177217 0  1.282654529021692 0.1634516867188552 0  1.343324227095839 0.2175851507697937 0  0.5747241214300347 1.087143402580354 0  0.1502172474800126 0.06370164366342397 0  0.07677312842259779 0.08704698619211086 0  0.06709364565267519 0.1592134266688963 0  0.1305803571428571 0
[...]
<PointData  Scalars="f_16-1"> 
<DataArray  type="Float64"  Name="f_16-1"  format="ascii">-3.0653531444148159e-06  -1.4254112015197782e-10  -1.1393809657735425e-10  4.6913019546937143e-04  -1.2676595253159885e-10  2.1217363665125050e-10  4.0776643263737375e-06  -3.0654043239944400e-06  4.0136030467174792e-04  -3.4359895201011966e-06  -1.3545174946878378e-10  -3.0652316736982430e-06  -3.0653584842817876e-06  -1.1432104515052622e-10  -1.2045962856434437e-10  8.8075198052139738e-06  5.5044687039571168e-04  -1.1752713257217192e-10  1.1784260267164258e-05  9.0634220107278871e-07  6.0283050847096904e-05  8.4575417063767510e-04  7.0868007847647244e-04  4.3128615981047573e-06  4.7130459002872816e-04  -2.6800962163888154e-06  4.7788307692924737e-07  -1.2791756126862203e-10  -8.3425210417110907e-11  -1.1814575494312592e-10  -3.0652847960290571e-06  2.7353587085402849e-06  6.9526830099388918e-04  7.1190226833470573e-04  1.2329915963363622e-06  7.8110128687109543e-04  -1.2190082534655258e-10  5.2401580922901969e-04  3.4506124503421625e-04  2.5908283974999999e-05  -1.3104465372451947e-10  7.1914106146455628e-08  -1.3914331086729361e-10  3.0722896618071706e-08  1.1506994144141531e-04  7.7543923546255522e-04  9.7117596726964806e-06  9.1105349077768303e-04  6.7136138623594209e-04  -1.2343042500915951e-10  -1.3239641419525199e-10  -3.0653529230375087e-06  -1.1736246176348684e-10  -1.1420888075262937e-10  -3.0637719218286958e-06  -3.0653615013649957e-06  -2.8707658215380536e-06  -1.1423001617104561e-10  -3.0653557972718433e-06  1.2054705301770898e-04  1.5437874152840091e-07  -1.2336032678817113e-10  1.3485946841954545e-04  3.2975601592063152e-04  -3.0550697870483791e-06  8.3201699755872568e-05  -3.0468123090436415e-06  -1.1889292841468358e-10  3.1374435621882571e-09  1.0694050922236652e-03  1.0264214712370896e-05  9.6180977256138650e-10  9.2800058698873391e-05  -3.0653101891063210e-06  1.4311621271914533e-03  -1.3963388968614498e-10  1.6963645836249297e-05  9.1631364578040721e-05  4.4906875262756937e-04  8.3197028974487807e-04  -1.2554247359523652e-10  -8.7925879661101616e-10  4.9466386876849443e-10  3.6285574482100130e-06  2.4852708089086452e-08  -1.2050598410444736e-10  -3.0653569792183039e-06  -3.0653548280758928e-06  -1.1584863683611051e-10  -1.1655298408486999e-10  -1.1884379358767588e-10  -2.8695230040430600e-06  1.8702012269011116e-05  -1.1643736376975579e-10  1.8190634370481067e-04  4.1717342315002432e-11  1.8945239057640113e-06  -3.0647750782336497e-06  5.7428519781001898e-08  -3.0653416891014009e-06  8.4728493622803294e-04  9.1386474322837339e-04  1.0547248896113912e-04  -1.2375121349318629e-10  2.2662572087627400e-03  1.1883086183984619e-03  -3.0284445605395705e-06  7.3744535421978742e-06  3.2684276128306018e-04  1.1526358139795298e-06  -3.0641941894993854e-06  1.6761363437954067e-06  1.3132774090218926e-03  1.3616314991904521e-04  9.1047858241587881e-07  8.5250898407610986e-05  5.3155228865823707e-09  8.0485830282903419e-04  4.3297249285307317e-05  6.2419101378273899e-05  -2.9359738703961931e-06  7.5636626242071413e-04  1.0971409972751541e-03  6.9586471304194600e-09  2.8209518680067085e-04  -1.7766901979126860e-06  1.1908149961645630e-04  1.6537878559986514e-03  2.8806895833687455e-05  2.4270689436354590e-04  -1.2329762574141839e-10  -2.8686175067160715e-08  2.5865733786290386e-04  -1.2072492275359378e-10  -1.2438941094844796e-10  8.5676450801430736e-04  2.3992019901861083e-04  9.1738613932380083e-04  1.1663106070876339e-03  -1.3278859535621746e-10  -1.2868857530189927e-10  -1.2947468603751018e-10  -1.2920250863118084e-10  1.3129617754392902e-05  1.8810221454759553e-06  6.2309081737334975e-04  9.2574188267924382e-04  4.6382467187032543e-04  -3.0652925574927751e-06  -1.1743785993097906e-10  1.3312791353221116e-07  3.1318632439859054e-08  -1.3394691111857910e-10  7.7656402282947636e-04  3.4126211300427125e-05  5.3018397768303082e-04  -9.6013654075407261e-11  -1.1981599241722522e-10  -1.2189034826444152e-10  1.7720512353839696e-07  1.4366093455400562e-04  3.6855441943209691e-04  5.1707074510635770e-04  -1.1575324874505105e-10  9.9410571881774316e-05  -1.1547262814109372e-10  -1.1398228744989031e-10  -3.0653530745418785e-06  -3.0653545491075521e-06  -3.0385112829345131e-06  1.3698990588706836e-04  -2.0428859842469554e-06  -1.3514999857979985e-10  -7.9013780842238034e-10  2.4259774076636212e-04  -1.4091686156675376e-10  -6.2234304443176017e-10  1.4715146619542622e-04  5.0137387315878518e-05  -1.7154185959460381e-09  1.9961224693503251e-04  5.3190137346339084e-04  1.0892084800699243e-03  2.1795909497884208e-05  1.4906830359020994e-09  -3.0574012192032346e-06  -3.0653511519319580e-06  7.7736704193282775e-09  -1.8974617690341832e-06  -1.1432088860341349e-10  -1.0002053702553834e-10  -1.1875686371126148e-10  -1.1432431831314982e-10  -1.2520579527871229e-10  -1.3656494507971133e-10  -2.4049811474210595e-07  -3.0653636219865185e-06  -3.0653599385681046e-06  -3.0653569550201883e-06  1.6517508052316050e-06  4.1033462505151390e-05  4.6104228683960573e-05  3.5090067427395113e-05  -3.0652879169266895e-06  4.4622200056193328e-04  -3.0020875239613961e-06  -9.2885726408091917e-07  -3.0645832868012076e-06  -1.3826530473571228e-10  9.4655985578555172e-04  2.4976759149532656e-06  2.6564689228636560e-06  3.2922306611156354e-08  2.4011844661597905e-09  9.1045202330745456e-04  2.6072731974707836e-04  -1.1890880442003499e-10  -1.2533524699710425e-10  7.1687953463349678e-04  2.0925851386511674e-09  -3.0642374704574838e-06  -1.1768938264046786e-10  -3.0649605136476788e-06  -1.2061881862346058e-10  5.5790578399829633e-04  -2.6216950960376132e-06  4.5174042560602564e-04  3.2450836127998075e-04  1.2712895079113768e-05  -1.2704029056313935e-10  -4.1769493769910517e-11  5.3584667344821276e-04  2.8393626038493566e-04  6.7184197579734067e-04  3.5452281503279995e-04  5.1130246881039626e-04  -2.3890814159717244e-06  -1.3133328169582467e-10  9.8204472512468345e-04  -9.9447328097415366e-11  1.0873969487177519e-06  7.1159383944131033e-05  8.3952592809276343e-05  -3.0653587941456788e-06  1.1141079993978884e-05  7.6931871011999111e-05  1.4222639849704625e-05  1.8748305999483325e-05  8.5033011528478026e-04  9.8615906667932668e-04  5.2969156803132268e-08  3.3778091830580996e-04  7.7945088936202283e-04  5.9606643781088208e-04  2.9437058625515273e-04  7.7036286690171712e-07  1.2669167561487590e-05  2.0520186677067738e-04  7.9150313690131074e-10  -2.9918023502566173e-06  2.5927541881547488e-05  -1.3724578511923087e-07  7.7036767289184391e-04  -1.2663258853242783e-10  -1.2611652224271782e-10  -1.2418886005687937e-10  1.5013372995548795e-03  2.5351312554150094e-08  1.8904894693266617e-05  9.1552824604435685e-04  -3.0653507468408015e-06  -3.0653538526135773e-06  4.4506067366515200e-06  1.9381757991763370e-05  -1.3639609413875026e-10  8.1309753735626266e-09  9.4145591743708768e-04  5.6728621171631144e-04  3.4901849057914437e-06  -3.0599068466859304e-06  -3.0640597881146021e-06  -1.3396864321784712e-10  8.6747463657213807e-05  -1.2209325746253484e-10  -1.2184857313899214e-10  5.5160124287895013e-05  3.2358700309788550e-05  3.6514035102915776e-05  -3.0653550346656108e-06  -3.0653561315996817e-06  -1.1511573889961335e-10  -1.1542408069243892e-10  -3.0653559710111270e-06  -1.1757111572107753e-10  -1.1772702205114010e-10  -1.1674286887114733e-10  1.0216123238329167e-04  -1.4051755834717083e-10  -1.1924127606198546e-10  -1.0722850171038401e-08  6.5850117035810963e-08  -1.1570178412836943e-10  -3.0653538559813236e-06  2.5495964448841486e-06  -3.0583374094694397e-06  -1.2201447677314439e-10  -1.3372364484002191e-10  -1.4007207565246616e-10  5.6791436749337248e-08  -3.0653447432690057e-06  1.5263667005781798e-04  6.7162542194160733e-04  1.3959891142268498e-03  2.8347381122023787e-05  -1.1556370403184325e-10  -1.1991975579061595e-10  -3.0653579113945503e-06  -1.1537906059040483e-10  2.2517849441232700e-04  -9.2957416040337343e-07  -3.0316002301155710e-06  9.7617837427850012e-09  8.4175588121726124e-06  9.1658250575739786e-04  -1.2313683478048027e-10  1.2222134378004211e-04  -1.2381117604216875e-10  5.7572617399087572e-06  -1.2086142443663877e-10  1.1789013146858256e-03  1.4813595169695510e-03  -1.1760301807879990e-10  -1.3317866332078505e-10  5.9779850511456503e-11  -1.8014811097435435e-06  -1.1186335973350786e-10  7.7276799229019642e-06  -1.2449632519708775e-10  2.6910876058121791e-04  7.6033079671139540e-05  3.1478975559760483e-04  -1.1938070580222490e-10  2.2986353718233939e-06  -3.0650734841208255e-06  -3.0413942852807839e-06  1.6549494240411088e-08  9.5858602877745565e-08  1.1113334653173928e-03  -1.2266978545396543e-10  7.8869187363085386e-04  -1.2115647949956261e-10  1.3244083535960500e-06  8.3532135111369702e-04  -3.0621235639590826e-06  1.1543742026788914e-03  2.7457092343543283e-03  5.2179552957988659e-04  -3.0653599031108464e-06  -3.0628529457372005e-06  3.7164378327814069e-09  4.6031367032763741e-11  2.1956493925419846e-05  -3.0653539522395360e-06  4.6165180271824722e-04  2.2872793006607650e-05  9.5199464986561761e-07  -1.1701005757975173e-10  7.8990973718865212e-04  8.7577300838459970e-04  7.3309956440453212e-10  1.2386111886347994e-04  2.0912874982458699e-04  6.1347665173138284e-05  -3.0653485585291845e-06  5.2712745402836564e-04  -3.3854918080816611e-10  1.2656322275559598e-03  4.7741647508040604e-04  1.3619579826628118e-05  1.5305617779823998e-05  8.5166550344021783e-05  1.6888280032344189e-03  1.5389101272173845e-04  1.7891792062130838e-05  2.9076485960287043e-04  -1.1832085455341410e-10  -1.0749805426346833e-10  2.1896436859952234e-08  1.5274016443780535e-10  3.6599413604833417e-08  2.0805795698797136e-07  7.9980379490514713e-05  5.3679835623020463e-04  1.9024615497986475e-04  8.4237793877269343e-06  5.6085852280484023e-04  -2.9344506801171390e-06  5.5492422617792604e-09  4.7384452783243835e-10  3.2501633620300458e-04  1.3436597219650753e-08  2.4739334578066253e-05  2.8391228276131262e-04  -3.0508942127238651e-06  1.6946811521273432e-03  -1.1447239627990249e-10  -1.1713263746995091e-10  1.7328047101114249e-05  -1.5815671893678214e-06  -2.6116526098366507e-06  5.9777101286263257e-06  1.6469738982184667e-05  1.2435361026403590e-03  7.4940746135259318e-04  -3.0653445522991419e-06  8.3712880413638153e-04  6.5577346661325076e-04  7.4434748305069647e-04  3.1860058073487540e-06  8.3290744354460915e-07  3.6580334491745706e-04  4.4944028096383185e-04  7.7341580898047997e-05  4.7223616771650244e-05  2.5346900112764337e-04  2.4786177584649430e-04  7.4365590630390212e-04  6.2946575215987188e-04  -1.3463091672511784e-10  2.8760951308479530e-07  -2.3325484194833535e-06  -2.9957018800038794e-06  -1.1884080136918362e-10  3.0472331068741586e-04  -1.2809315349748162e-10  -1.2530125459257966e-10  6.5024603086572376e-04  5.7915579104796491e-04  5.2122448523752535e-05  -1.3424429111856832e-10  -1.1636235859049794e-10  1.6960006027228882e-06  -1.2277168015981674e-10  -3.0653591688436804e-06  1.5536172215709678e-04  -1.2094266650805787e-10  3.6725506689726998e-04  6.5950221231521843e-04  9.7967701367613572e-04  5.7435182115164708e-04  -1.3202484191804743e-10  -1.1642282234908119e-10  -2.1448853947062575e-06  -2.9717652873445269e-06  2.3237538808113984e-04  7.1503520661747965e-05  -1.4160552188357136e-10  -1.1625678945260624e-10  -2.6662204236707693e-06  2.9454177603987914e-06  2.0594467878591329e-03  5.0824390156034350e-07  -1.2217619679585713e-10  -2.3793451914131123e-06  -1.1803395254764577e-10  -1.1831467880940386e-10  5.7983301783696215e-06  6.9932056099914527e-04  1.0427000543189095e-03  7.5458974977890894e-04  -1.2478822508622310e-10  -2.8760496644957890e-06  1.8623830188880619e-03  -1.1972106419807268e-10  1.9432331950162478e-10  2.4421363936487676e-07  -1.3005119954306602e-10  -1.2774368310811812e-10  -1.2715832920027275e-10  -1.3773774828654829e-10  -3.0653527438923540e-06  6.4827639368477265e-04  8.1549333046260198e-04  -3.0650133217141354e-06  2.7530643869895890e-04  2.2063583316649847e-04  -1.2594959253571834e-10  1.0503041525145600e-03  1.1076481134334498e-03  6.2133463289894763e-04  8.7845554537260601e-04  -8.5182096485400428e-08  1.8463449804570261e-04  2.1809385164671805e-05  -1.1438766982561176e-10  3.0950600696357106e-07  1.0354526918747052e-07  8.5493340640795546e-04  -3.0653577527512970e-06  4.0125262521792404e-04  -1.1964957287067067e-10  7.6950446726127780e-07  -1.3834851645762665e-10  -1.1439000418066688e-10  -1.1512577191047320e-10  -1.8501960058819979e-06  -1.3225954462664283e-10  -3.0647435170749724e-06  -3.0653109231988270e-06  6.6504892139735559e-09  7.9993165498933321e-04  -1.3090192151803825e-10  6.3188242402383574e-04  9.4665290295359251e-04  2.2333291326930766e-09  1.0571560916835743e-06  4.1210093528672750e-04  2.3471064455914051e-08  -3.0653594092681066e-06  -3.0653518989085374e-06  -3.0653346351406537e-06  -1.2954931123637764e-10  1.0109127377599307e-04  -1.3321872223654344e-10  -1.1626310159471368e-10  1.4239418265140761e-07  1.8364746716440760e-08  1.0996327780274430e-04  -3.0653570277695099e-06  7.2601703995857261e-05  -1.1814975534186860e-10  -1.2747098476049895e-10  -1.3079094783185344e-10  5.0254428331470249e-08  9.9056898230943913e-04  1.2545773332127433e-05  3.3878638958479429e-10  -1.1426859415700530e-10  -5.3527024302195847e-11  3.6663691684221047e-10  -1.1771310108193252e-10  1.0889767727122557e-09  1.2998129255790754e-05  4.1132230784496546e-05  4.9082776045446944e-06  -1.1387116710187710e-10  -1.3143338405064483e-10  5.0304200164020109e-04  -1.1810082310439808e-10  2.0610001783848992e-05  9.9033869003596118e-05  9.8488071649221804e-08  5.6544166275938760e-04  4.1716559841327439e-04  1.1082395239029513e-05  1.2471621836899674e-04  2.8740737297029099e-04  2.0477046140544352e-08  -1.1606904070490240e-10  -3.0653556280068291e-06  -7.6280659322453659e-07  2.8452164409844400e-04  -2.4644714451854369e-11  1.4194941143717395e-04  -1.1665737744980649e-10  2.0338868436662030e-04  3.8634580929762672e-05  1.5407443635016626e-04  -1.1473031554039276e-10  -3.0609648715322646e-06  1.4159458815998319e-04  -3.0643103569351607e-06  -3.0581280376267099e-06  -1.1499302571671214e-10  -3.0653544629557108e-06  -1.2260073454567197e-10  8.1607018053204072e-04  2.9368874527343504e-04  -3.0372350806139652e-06  1.2210853109102762e-05  4.8123899298554739e-05  -3.7873780177085804e-07  7.5701269285134872e-04  7.6454289997637297e-05  3.0078128082643445e-04  3.2297227801320663e-09  -1.1490197596812131e-10  8.6276164614380651e-04  4.6719168319467476e-04  1.5483278710739734e-04  -1.2976800068346754e-10  2.1580597253759145e-05  9.1430418217821111e-04  4.4442255331006066e-05  7.3716212288839366e-04  4.1129369154395595e-06  -8.0806365400071934e-10  1.8802965502988429e-07  9.1729571828874032e-10  -3.0619214727309113e-06  -1.5614828221377364e-06  -2.9817529401976322e-06  -1.3543613269479903e-10  -1.3647369093590595e-10  -1.3435465209619428e-10  -8.5998051064451929e-11  -1.1261423960712036e-10  -2.2760100367900347e-06  4.9638445293081699e-05  4.7711190535776272e-04  7.7961778326917658e-10  -1.3106003779049632e-10  9.8375744587004892e-05  1.4232729200112313e-04  1.3727507705447602e-05  7.8977129550097293e-06  -1.1655367566566451e-10  1.3746776568318624e-04  3.9525578067311796e-04  9.6723977177656404e-04  6.9868152632666730e-04  5.5464523167888613e-04  1.2695143479984802e-04  2.7221048039633989e-04  -1.2592436790668964e-10  3.9348790536590251e-04  -3.0653564732356732e-06  -1.1428314634206418e-10  6.5847217275568490e-05  3.0958493838699366e-04  5.8496963326733342e-05  7.5535833611161993e-05  9.3410947002952410e-06  3.4521567329933049e-05  1.1762293389931116e-08  1.7827682626832316e-05  6.7282284114243002e-04  -1.3015374633426510e-10  -1.3893861681495368e-10  -1.1708202389369160e-10  -1.1889586744476201e-10  -1.3188721010518284e-10  2.1288086454199735e-09  1.7051287141945620e-03  1.1233862195892453e-03  1.1368203969529390e-03  -1.4261540716457028e-10  1.9149981167647235e-07  6.4985471770127726e-04  -1.2191051549019146e-10  3.3243135748180019e-04  1.1985784031831392e-05  9.0021347495209376e-09  6.6569696581090771e-10  -3.0653562476377880e-06  7.8747946883026590e-06  -3.0632227703707251e-06  6.0348348268749328e-05  3.0222694270034420e-07  -1.2772699893382781e-10  7.2719709032500622e-04  7.8641363010823341e-04  -3.0653537424754206e-06  -3.0653531174626955e-06  1.4154354412080132e-05  -3.0653606415655628e-06  -3.0639455934061130e-06  5.6334334978426409e-07  -1.2125916852682876e-10  -1.2272513191141126e-10  -2.7733906774185132e-11  1.1323748813903791e-09  3.0753601130291919e-08  -3.0673216532806478e-06  -3.0654081694892634e-06  -3.0653646858470071e-06  -2.7027071519134189e-06  -1.3328793515163145e-10  -3.0653577849133532e-06  -1.1967662293383844e-10  -3.0653530359404563e-06  -1.3989858535023376e-10  -1.1418537857776039e-10  -3.0653552899014940e-06  -1.3600046090361451e-10  -1.2422200598071311e-10  1.2291827714755935e-09  3.3170941285497137e-07  4.1845429063183757e-04  2.8340970030880465e-07  1.6999506338727971e-04  4.0675233578459991e-04  5.1912728125070066e-04  -3.0653620732094792e-06  5.6072369819474612e-05  -7.6099756272865337e-07  -3.0265977998913816e-06  4.5718231344412265e-06  7.0255751886268223e-05  -2.6842400621938629e-06  -1.1755147993523915e-10  -3.1684612206682651e-11  -9.4559533802010039e-11  1.9936684961835974e-04  6.6991137329185709e-04  6.0634017425545784e-05  2.7462842891302008e-05  2.1563889765058673e-05  -1.3796307902618108e-10  1.8705646531158473e-05  -3.0652753945316076e-06  5.8175923941881532e-09  -3.0652202660663268e-06  -3.0653600324244336e-06  -3.0651780935989958e-06  -3.0600415027446914e-06  -1.4090661445566123e-10  3.3365084102654111e-04  2.1955485010669595e-03  3.0093934967685667e-10  9.5512665679133176e-04  9.5816072315680046e-09  1.0753160516593736e-03  2.3481287133436031e-04  2.6622489074235399e-08  2.5089787235827594e-07  -3.0626177551752332e-06  1.0104098159766541e-09  7.2034246053413156e-04  3.1867980245546995e-04  4.4889853760158188e-10  7.2043956713744672e-05  -1.2722074949566770e-10  9.7283728212620309e-04  1.4819683166599573e-03  1.2334334286990194e-03  -1.1535828963360236e-10  -1.2003086361580043e-10  -8.3299596781154059e-11  -1.2958080453450827e-10  1.6964292302135261e-03  -1.1404798750185583e-10  -1.1712628269726792e-10  2.1401291954634842e-07  2.4948375968210785e-04  -4.1921436329546059e-11  1.0040118429927236e-03  6.9403000004133727e-06  3.0517077536586207e-04  6.2686346838675198e-04  5.2650288566418054e-06  9.6569173408433823e-07  4.2953592387741086e-06  3.4039116348730105e-07  -3.0653016703249718e-06  2.9302143029743932e-06  -2.9098892621539936e-06  1.9340990571360103e-06  -3.0652035449515192e-06  -3.0618342469949829e-06  5.3620118922023473e-07  5.4289036151188056e-05  6.4595332069381515e-04  1.4793117830344221e-03  -1.2066154458410564e-10  -1.2100245289048197e-10  6.5385078173201743e-04  7.3552582325553083e-05  -3.0653520339615445e-06  -3.0424138346873641e-06  -2.3786882844567041e-06  -3.0574414867361560e-06  -1.1745465247715362e-10  -3.0653056846757713e-06  -3.0628910103875779e-06  -3.0650545598632402e-06  -3.0653080276610666e-06  4.1527635047680617e-04  1.6921323910855932e-04  1.4975662808456151e-07  2.4363396102531021e-06  1.8907036768519213e-06  4.2917372749247231e-06  1.0755599255914767e-05  -1.1523353717497910e-10  -2.1321301427551309e-06  5.6690413690298713e-05  -1.1911508210699019e-10  -1.2660964525285757e-10  6.1150467710117202e-04  1.8884213809210154e-03  -1.2021095697765389e-10  6.2269585417668299e-04  5.4863385728053029e-04  7.9551125770131563e-04  3.9787313630285348e-05  -1.1827725201391418e-10  -3.0041413344221925e-06  -3.0653534431678600e-06  1.6644066201275430e-06  3.0429694501374886e-05  3.0918002774954900e-06  2.1226858279016448e-05  8.5084519083283231e-04  9.2770321445323045e-04  1.0321395623721099e-03  -1.1610458960833112e-10  3.7042427283057273e-05  -3.0647961987989692e-06  -3.0590538608907856e-06  -1.5189334771545630e-10  -1.1967114252840193e-10  -3.0653532623395950e-06  -1.1990197349968369e-10  -1.1600198424924851e-10  