<?xml version="1.0"?>
<VTKFile type="UnstructuredGrid"  version="0.1"  >
<UnstructuredGrid>
<Piece  NumberOfPoints="6486" NumberOfCells="12696">
<Points>
<DataArray  type="Float64"  NumberOfComponents="3"  format="ascii">0 5 0  0 0 0  5 0 0  5 5 0  2.5 0 0  5 2.5 0  2.5 5 0  0 2.5 0  2.5 2.5 0  0 1.25 0  1.25 0 0  1.25 5 0  0 3.75 0  5 1.25 0  3.75 0 0  5 3.75 0  3.75 5 0  3.541666666666667 1.458333333333333 0  1.458333333333333 3.541666666666667 0  1.875 1.25 0  3.75 3.125 0  1.284722222222222 2.326388888888889 0  2.683189655172414 3.767959770114943 0  0.9375 0.9375 0  4.0625 4.0625 0  0.7252209595959597 3.026357323232324 0  2.763480392156863 0.9129901960784315 0  1.875 4.345238095238095 0  4.345238095238095 1.875 0  4.192708333333333 0.8072916666666664 0  0.8072916666666665 4.192708333333334 0  3.368055555555555 2.326388888888889 0  0.6837606837606839 1.738782051282051 0  3.285485245626782 4.324328415208927 0  2.551239698778062 1.693130150610969 0  1.827256944444444 2.868923611111111 0  3.464875022477093 0.6813924607921316 0  1.942880513719175 2.059558626187995 0  3.04563492063492 2.971230158730159 0  4.375 3.4375 0  2.13639445139758 0.5994472256987903 0  4.272228422619047 2.606956845238095 0  0.625 0 0  0 0.625 0  5 4.375 0  4.375 5 0  0.6400043240752655 2.384646170113389 0  1.347691225855598 1.660875475110776 0  3.515783617857982 3.723905460714006 0  3.125 0 0  1.875 0 0  0.625 5 0  4.375 0 0  5 1.875 0  0 1.875 0  0 3.125 0  1.875 5 0  5 0.625 0  0 4.375 0  3.125 5 0  5 3.125 0  1.489644181965304 0.6007147273217681 0  2.054597701149425 3.742302955665024 0  2.662520990197781 4.39452575763237 0  2.415835363784578 3.165530021913244 0  0.8679986894865213 3.602373689486522 0  1.267459753787878 2.886186079545454 0  4.099702380952381 1.365327380952381 0  1.316964285714286 4.438244047619047 0  3.7915135293491 1.959691594758709 0  2.875141124191255 2.118761176511833 0  3.00418010501169 1.397414179299248 0  0.4081721322167092 3.410647930198662 0  0.4166666666666666 0.9375 0  1.014190407998288 0.4422301359994293 0  1.383260571305984 1.162718286082048 0  4.53125 3.90625 0  4.453125 4.453125 0  3.772848162504192 4.48678272083473 0  2.8125 0.404329517041716 0  0.4538690476190476 0.4538690476190476 0  2.305461739347387 1.04517007574828 0  3.771263799175824 2.624190260297553 0  3.229617768018734 1.809956994202883 0  3.780190884441317 1.025307111692601 0  4.646337365591398 0.9375 0  4.537623451379149 0.4609485750426037 0  1.200477888421151 3.934852888421152 0  0.3536626344086022 4.0625 0  0.4623765486208503 4.539051424957397 0  4.0625 0.353662634408602 0  4.560525106689535 1.390989100915847 0  3.958439078571988 3.619844539285994 0  4.672619047619047 2.1875 0  2.1875 4.672619047619047 0  1.862808494877602 3.325947624431087 0  0.3268135998175443 2.8125 0  4.674181280189791 2.8125 0  2.283233994935276 4.138623547175983 0  0.9375 4.677879119362977 0  3.08488061581743 3.469889594488945 0  3.113427375573758 3.913955730709506 0  1.652847799068813 3.950848935641292 0  2.932652662909449 2.550542739521724 0  3.311350648514189 1.088831994878698 0  0.6770833333333333 1.295851139601139 0  0 1.5625 0  1.047214787840024 1.96818092308125 0  4.183331482095785 3.03958703580843 0  3.4375 5 0  1.071307777252521 3.246275861010018 0  0 2.1875 0  0.386576856303419 2.03125 0  1.713862716483534 2.439783116849799 0  1.775396256975935 1.665976816304977 0  2.231236976948428 1.443917394671254 0  2.373900732409897 2.086930260150635 0  4.114918237574474 2.221646174618671 0  3.661302567757379 4.099620139144836 0  3.378215938602977 2.734494874063393 0  0.9842097536079312 2.597286741306247 0  1.642795138888889 4.672619047619047 0  4.0625 5 0  2.099458800960004 2.567446522665629 0  2.616202751603346 1.297895893940078 0  5 4.6875 0  0.9937554350075428 1.512592975947215 0  2.8125 5 0  3.002695327068194 4.614055254615477 0  3.205627424097207 0.3852436382721472 0  1.678616581261621 0.927556612265266 0  3.365326698305438 3.196943731162083 0  1.554834936170314 3.120009882655813 0  3.108408340729323 0.7797187795784133 0  3.684368918102174 0.3728877601163941 0  2.716214835303553 3.39276351922003 0  2.37718583984784 3.551973401560441 0  0.3750662445374837 1.52191994866787 0  2.679073487930202 2.844160731602957 0  1.557635869750078 1.991068682985722 0  1.812595698561088 0.3839273018252746 0  2.512014721281916 0.6320641118792227 0  2.1875 0 0  2.349973454443689 0.3189980586887866 0  4.6875 3.59375 0  4.636052949022233 3.178355898044465 0  4.6875 5 0  3.345485909784306 4.665765449101383 0  0.536727472389443 3.749603193819277 0  4.349541499640203 1.116201826262156 0  2.886559045931982 1.774013674579691 0  0.6770833333333334 0.7142857142857143 0  1.5625 0 0  4.120842096538671 4.628726497527622 0  2.176157474177018 1.793470423744689 0  2.175650736889416 2.909863021769539 0  4.036616464259081 1.709699085170981 0  3.887974623473683 0.6492597046022868 0  3.4375 0 0  3.70675699592552 2.289666624772415 0  4.697265625 4.208984375 0  2.815177577303495 4.085937578239174 0  4.672619047619047 1.730733296184288 0  4.6875 0 0  5 0.3125 0  0.3125 5 0  0 4.6875 0  0.3276089296588581 2.484526834811734 0  0.712433309515852 2.065138854645612 0  0.6376435912223634 2.711473454001295 0  1.184991292170422 0.7222504400947201 0  1.31884329779317 0.3206944232264773 0  3.683609198994263 3.44428698533042 0  0.3125 0 0  0 0.3125 0  4.231797269642997 3.789141808928991 0  1.564375596050781 1.425998687184973 0  2.007640894175573 0.9032106925568466 0  0.955125897558294 2.276666098587227 0  1.43898735721003 2.611310720271951 0  1.954491523717513 4.040700257877075 0  1.752947649777421 3.652439445419346 0  2.509575750247638 4.678021307664052 0  4.687194709705067 2.499965519538002 0  1.5625 5 0  0.9375 5 0  5 2.8125 0  2.1875 5 0  5 1.5625 0  5 2.1875 0  4.0625 0 0  5 0.9375 0  2.8125 0 0  0.9375 0 0  0 0.9375 0  0 2.8125 0  0 3.4375 0  0 4.0625 0  5 3.4375 0  5 4.0625 0  4.010848109290813 3.306446973933037 0  0.3077461147713075 3.119700563473354 0  4.6796875 4.6796875 0  2.333079012424948 3.845757959077508 0  0.7829771267899832 3.317744656243421 0  1.159100632608513 3.532487125138763 0  0.799066251840424 3.893573750162776 0  1.57326499580282 4.255438189102632 0  0.7309366047093668 0.2991402264438908 0  0.3054777494262156 1.223275888123843 0  4.027475154280377 2.78211326942427 0  2.35270874745988 4.426658168476266 0  3.474236283732569 2.021154281686229 0  4.401414236174444 2.329446628171927 0  3.39403781747337 3.987097102903034 0  1.077524329801934 1.214100792470484 0  4.065611571711903 1.066085524514197 0  2.165399002716117 3.335637450367864 0  3.007639563081306 1.093684039371638 0  4.030818285732145 4.351883315180857 0  3.504115222530889 1.739284194222036 0  1.224503368215566 4.712091441401919 0  3.805634204685714 1.321528442399996 0  4.319233123479386 1.573547993867769 0  1.024007670021325 4.394604704797005 0  3.776400432023095 3.839003324979723 0  2.991819819453308 4.320567175146181 0  0.9782797534072181 2.886406017887129 0  1.763835134082104 0.6602345487826022 0  3.765182288741625 1.631193038541544 0  2.267959593989681 2.345053543725764 0  4.412434895833333 4.168294270833333 0  4.4072265625 4.7255859375 0  2.791493971314009 3.11210833271929 0  3.408766223032414 3.469500900677365 0  1.915147569444444 4.725484476461039 0  2.070301968506271 0.2605666686358055 0  2.767932250651506 1.530295992695836 0  3.280065043173439 1.364863281105779 0  4.45101570110842 2.974157152713635 0  3.521928862999512 2.96990445010402 0  2.552921961347576 4.008414007169315 0  0.2682955376854191 3.657555015841003 0  3.084522868361304 2.310593316718068 0  2.669255823227708 1.939379494498064 0  2.615884629473921 2.238841231570381 0  1.405652091971449 0.8877813821442277 0  3.25151486618811 3.68536115104276 0  1.963741569810629 2.331207252264507 0  4.017297980292599 2.486269171379106 0  3.869168920841219 4.748188103831625 0  3.596868753579134 4.77342723825056 0  2.41262958240343 2.764128584995838 0  1.266750578673391 1.404747710001619 0  1.559243962241121 2.85146506328516 0  3.128799423834764 2.052081657715259 0  0.6770833333333333 0.9778025793650794 0  0.2083333333333333 0.78125 0  1.978224492765132 3.087074731032578 0  4.051448850909273 1.969392119104174 0  1.320577095006813 4.172234780971559 0  3.214261103850064 2.534397293281829 0  0.2635729089754111 1.779234736680035 0  3.510775680035133 4.460728640112889 0  2.603081405968802 0.2432579385496493 0  2.866341315154884 0.6662105505481998 0  3.000919221100777 0.2270278495648781 0  1.298858304121393 2.05917319923859 0  2.020292299736597 1.589794568392338 0  0.7401688396476035 4.470780315741533 0  0.6721783535561408 4.733125588707921 0  3.753712482075402 2.874301339727514 0  3.557348205914658 2.491958694539413 0  1.094565978195436 0.2011034254079851 0  0.9338148378011396 0.6833568465908735 0  2.945530578578538 3.701798332963805 0  3.111707186654356 3.216904195825605 0  1.341791111822685 3.293123262233967 0  1.632939924064587 1.184895891095613 0  0.6335477978936732 3.517393619499591 0  0.5576014611130192 3.210998966942492 0  1.564344196470102 0.3630498725895039 0  2.75362450242839 4.626680495816594 0  3.571304405229554 1.192452351107437 0  3.522934592621944 0.9359134489437148 0  4.453125 3.671875 0  4.765625 3.828125 0  1.055906321410838 4.14310472322957 0  4.795146539102229 0.46875 0  4.767156345199235 0.7178596932040019 0  0.2048534608977711 4.53125 0  0.232843654800765 4.282140306795998 0  0.5393715189906129 4.270810883024032 0  4.329922600274667 0.2750645887059072 0  4.275515096738972 0.5448389557295173 0  4.477747423652795 0.7252838358993123 0  0.2002829820452772 0.46875 0  0.4352678571428572 0.6956845238095237 0  0.5007241582667088 0.2123388122114133 0  4.672890923830735 0.2500902110494848 0  0.4308009280819452 4.783624996516437 0  2.104871305393774 4.438653689007242 0  0.2274454167838428 0.2274454167838428 0  3.446466574593436 0.4359605369011901 0  2.12354112127588 1.217588426759619 0  2.309175236825235 0.7888355970690434 0  2.556178570281936 1.054299163237582 0  0.578683248637
[...]
<PointData  Scalars="f_800-1"> 
<DataArray  type="Float64"  Name="f_800-1"  format="ascii">4.0188304099178583e-02  5.9440570790623433e-02  3.9460368524760495e-02  3.9248709197384227e-02  4.9512333479928991e-02  3.9440515150680824e-02  3.9874410799996512e-02  4.9881085140231450e-02  4.9503568560634016e-02  5.4906218187018158e-02  5.4568740858551852e-02  3.9759534410693957e-02  4.4800705866611619e-02  3.9441057682876791e-02  4.4468158805818156e-02  3.9470486267570618e-02  3.9816869241906860e-02  4.5288393599658479e-02  4.5673747396432519e-02  5.2047124678991336e-02  4.4484175406424180e-02  5.0552158820212467e-02  4.4750175472520644e-02  5.5922645568529709e-02  4.3054448374959815e-02  4.7750240245765463e-02  4.8430202381108255e-02  4.2492336118835614e-02  4.2062838955764147e-02  4.2650375985906173e-02  4.3178999020120963e-02  4.6032835159366195e-02  5.2924581863138663e-02  4.2523653684670003e-02  4.9317522826167318e-02  4.8366549252715954e-02  4.5589081335287447e-02  5.1733514254869058e-02  4.7295860655968740e-02  4.1975702310013560e-02  5.0977584926321901e-02  4.2361404336423776e-02  5.7093735512718492e-02  5.7418415737214207e-02  3.9490279649255514e-02  3.9934966575454568e-02  5.0346615160901921e-02  5.3662771353760789e-02  4.4948330243195833e-02  4.6947049037249423e-02  5.2018057271592089e-02  4.0067881201306256e-02  4.1943755501288545e-02  3.9414401836237178e-02  5.2387891261788472e-02  4.7339754342737586e-02  3.9846324402716342e-02  3.9450456808112322e-02  4.2622731564132314e-02  3.9847348536382429e-02  3.9444806985639687e-02  5.3598850564768222e-02  4.4881762079164236e-02  4.2240859478191221e-02  4.7246052183083649e-02  4.5418113433163113e-02  4.8339593964129172e-02  4.3032042305881764e-02  4.2081121757994944e-02  4.4303984555308464e-02  4.8012539734309100e-02  4.7475703379551218e-02  4.6190174955785729e-02  5.6161459565139127e-02  5.5523165190705361e-02  5.3990729433827350e-02  4.1356170577698824e-02  4.1449682356370234e-02  4.1945478131112775e-02  4.8240373610294908e-02  5.7604724823656021e-02  5.0316082736012818e-02  4.4413567918968007e-02  4.6583082199938855e-02  4.4323618320334289e-02  4.0841408803480916e-02  4.1290846206031163e-02  4.4078056251336560e-02  4.3538255049863459e-02  4.1622040533209725e-02  4.3193582513077255e-02  4.1160959916845839e-02  4.3631691705754497e-02  4.0738490148417433e-02  4.1169953094277664e-02  4.6542412684782167e-02  4.8616328003916826e-02  4.0732218426992796e-02  4.3281271382025525e-02  4.1064792653790934e-02  4.6145752451476348e-02  4.4229627557413567e-02  4.4030992460664227e-02  4.7772659139475690e-02  4.6213836755132805e-02  5.4718075604265448e-02  5.3648541813034113e-02  5.1995920664103336e-02  4.2757773094300365e-02  3.9833542833961184e-02  4.6857519493660606e-02  5.1129388022343236e-02  5.1810102043324223e-02  5.0134427447665865e-02  5.2470380382188972e-02  5.0607867383316719e-02  5.0033836135816009e-02  4.2981810563614171e-02  4.3570392271622897e-02  4.5985332427475885e-02  4.9476551695157953e-02  4.1100968009289016e-02  3.9840931390003179e-02  4.9837799595050525e-02  4.9068202788418010e-02  3.9445147842892166e-02  5.3971151237293465e-02  3.9865731528211115e-02  4.1379900078318661e-02  4.6633167740718844e-02  5.2839002578490418e-02  4.6032514639499846e-02  4.7386473699512682e-02  4.7042014872471762e-02  4.4691393882527450e-02  4.6368845674613683e-02  4.5618742556978301e-02  5.3800656095792231e-02  4.8526188918058516e-02  5.2247816568315814e-02  5.2284879045344158e-02  4.9443077374810088e-02  5.0753126941218744e-02  5.0088817698824117e-02  4.0712436249321728e-02  4.0899933522558100e-02  3.9832411545421297e-02  4.1126393468398713e-02  4.4797661410071681e-02  4.2012351344202448e-02  4.7986106443453302e-02  5.7043377143431419e-02  5.3298802393742031e-02  4.1414387247809534e-02  5.0824484918599887e-02  4.8272907706149185e-02  4.3288497919991877e-02  4.3870586580905889e-02  4.5704539868790965e-02  4.4653631600081317e-02  4.0664813474141012e-02  4.3488496178769528e-02  4.0717091978078920e-02  4.0686340192813024e-02  3.9459900248524478e-02  4.0230373497733826e-02  4.1358370108516826e-02  4.9930852669830675e-02  5.1617804863134255e-02  4.9015149210566440e-02  5.4833698218885313e-02  5.4289186375524372e-02  4.4740420550001027e-02  5.8357737068011666e-02  5.8642669095740223e-02  4.2532430283600431e-02  5.3293819043982421e-02  5.1511794822323737e-02  5.0760614065354738e-02  4.9418664968493960e-02  4.3688341655116883e-02  4.5234291978295052e-02  4.1128747958814424e-02  4.0676686672654422e-02  3.9882731141049094e-02  3.9833501343827439e-02  3.9449451096071578e-02  3.9841443647017291e-02  3.9420179303409762e-02  3.9423390837561675e-02  4.3204366673074368e-02  3.9462376470615478e-02  4.8219499000911922e-02  5.5827134286052092e-02  5.6157544858937480e-02  4.8602220896079941e-02  4.6069484158921654e-02  4.3441004815256069e-02  3.9457402290274911e-02  3.9477525442235727e-02  4.3435374862363527e-02  4.7362808151281244e-02  4.0524254541211453e-02  4.4459496770771670e-02  4.6575712929518724e-02  4.5716085579888259e-02  4.4259188200948006e-02  4.2821376525273708e-02  5.6665824231981542e-02  5.5003535069064628e-02  4.3373339393054447e-02  4.2166399498509824e-02  4.5592134698752972e-02  4.1820755717037757e-02  4.4006511584059424e-02  5.5423795344184762e-02  4.3162009250001812e-02  4.6490066423663171e-02  4.7449424074334105e-02  4.2481440053943706e-02  4.5452868545153749e-02  4.1034681957706542e-02  4.4229464509065924e-02  4.2147287481716374e-02  4.2332427551863248e-02  4.4154869930545154e-02  4.2521378406936691e-02  4.8317671880267928e-02  5.2495836372021917e-02  4.4385536581758880e-02  5.0410023727356465e-02  4.1780136217724223e-02  4.0938522175899619e-02  4.7605709887512219e-02  4.5683896043442980e-02  4.0912817966305366e-02  5.1234630956123552e-02  4.8448089052495688e-02  4.6352203846442057e-02  4.1646526067652193e-02  4.5398560148382998e-02  4.3789985843089616e-02  4.5180911403062664e-02  4.7171096113472651e-02  4.8842163503874249e-02  4.9057674492992670e-02  5.3940417947271134e-02  4.5266317167621341e-02  5.0860697067550850e-02  4.3395789646801353e-02  4.0842098478462409e-02  4.0704094668236691e-02  4.9064487081597344e-02  5.4595830880933130e-02  4.8449998062440748e-02  4.6999455724338002e-02  5.6641457067896028e-02  5.6776423809989846e-02  4.7490124400271214e-02  4.3239851126040799e-02  4.3134279468771304e-02  4.6644841746205472e-02  5.2770117166849789e-02  4.1982333943843153e-02  4.9087420331535271e-02  4.8009049350802642e-02  4.7461742583927227e-02  5.1635708442019923e-02  5.1450309464524807e-02  4.1893946902308493e-02  4.0847226290054883e-02  4.4472875221022758e-02  4.5276831505196076e-02  5.5195105742430278e-02  5.5803697242896591e-02  4.5092470415485551e-02  4.6848894637743846e-02  4.6681440927463784e-02  5.3016152538734936e-02  4.5772884476896876e-02  4.7002710097090894e-02  5.3301713465630361e-02  4.1318325789799229e-02  4.5170069869786174e-02  4.5374668188363186e-02  4.1657315359313545e-02  4.0405755291965703e-02  4.3259582510844698e-02  4.0243405065890331e-02  4.0376372322851739e-02  4.1930465507607650e-02  4.2633508274751861e-02  4.2703736622928389e-02  4.2128501098697389e-02  4.2335552140729857e-02  4.1522133826201235e-02  5.9379792668204555e-02  5.8105746192522297e-02  5.7593040603140799e-02  4.0746493664819465e-02  4.0908667745970066e-02  4.2102592654119982e-02  5.8385973995225680e-02  4.5649293257208012e-02  5.1042470630995040e-02  5.0290066094219835e-02  4.9301664789221857e-02  4.3940737110847936e-02  4.6361266222469756e-02  5.0886572089531255e-02  4.4260423189008267e-02  4.3993700043167626e-02  4.0441926245051600e-02  4.0335726199143232e-02  4.0381527896248430e-02  5.4815355895045451e-02  4.4674626852090359e-02  4.4663712013905059e-02  4.7206936723770111e-02  4.2022241138558764e-02  4.7164115696095264e-02  4.4699390609647324e-02  5.2871635592535465e-02  4.6438247462399905e-02  4.5702354390495928e-02  4.2069485801773901e-02  5.2665577540572842e-02  4.1630562374480380e-02  4.2863380315006257e-02  5.0800946016148485e-02  4.0331135265633734e-02  5.4277441665287710e-02  4.9661144404259311e-02  4.2876411579739843e-02  4.3414690164847516e-02  4.3532482709261237e-02  4.0509832393769284e-02  4.8218491172833673e-02  4.9248872326571699e-02  4.0075122844466675e-02  4.1416729928774119e-02  5.1649297387776003e-02  4.6321836544033615e-02  4.6196856838741272e-02  4.2903196204854416e-02  4.5069457376588622e-02  4.0084867241105937e-02  4.3387315365385162e-02  4.8221897888007598e-02  4.0692992855017589e-02  4.9357752901174945e-02  5.3813560900997745e-02  5.5929545277149259e-02  5.5344785715661371e-02  4.6214041634072146e-02  4.6711100516499134e-02  5.0498086348717594e-02  4.0073870406105633e-02  4.0078045669609513e-02  4.0459870450742695e-02  4.0926453762642603e-02  3.9916471370503158e-02  4.3609411300582920e-02  4.2360215505726537e-02  4.8364585459250264e-02  4.0529507980797283e-02  4.7222510926928481e-02  4.3116358209736812e-02  4.3309129410174202e-02  4.4423829737979904e-02  4.8693777787254644e-02  4.8021039128224932e-02  5.6426587657231603e-02  4.2139767135424881e-02  4.6747618414431667e-02  5.1027106817155679e-02  4.9945650420071729e-02  4.0471065425171572e-02  5.2546250732873868e-02  5.2408157455708301e-02  5.3380654667914793e-02  5.1780033948935468e-02  4.3660547036399232e-02  4.9224044370193551e-02  4.5638444227142090e-02  4.7348383959001226e-02  4.4089698203971260e-02  4.2921299173054497e-02  4.1202017353831499e-02  4.7550952046295773e-02  4.9440420521481253e-02  5.4697730744767942e-02  4.2017764850265357e-02  5.2570334769042978e-02  5.2558838388477518e-02  4.2123493939116172e-02  4.7933943641645070e-02  4.6366046162547241e-02  4.1097040115685844e-02  4.8847220637045365e-02  5.5819790454904442e-02  5.1987364673038751e-02  4.3803833702476147e-02  4.2466576255888136e-02  4.7910692549258012e-02  4.2605136668409621e-02  4.0812172685575888e-02  4.7455833778805613e-02  5.3305814497577965e-02  4.0035644174153388e-02  4.9995575468365874e-02  4.9632778940728907e-02  5.0176610643503261e-02  4.1914983591651182e-02  4.6124566997353962e-02  4.7479257192456145e-02  4.5129379954958471e-02  5.4895238839492620e-02  5.1124491975124496e-02  3.9784736738986436e-02  4.9910742764421007e-02  4.4291168662200613e-02  4.4416135981217332e-02  4.1949977015869902e-02  4.8956104120954906e-02  5.0089241540528504e-02  4.4939719359351586e-02  4.5346192084138467e-02  4.4304284823067835e-02  4.3610093750334783e-02  5.3926063372164060e-02  4.8125645342054525e-02  4.0466696665997538e-02  4.1464131584952622e-02  4.3147892348039514e-02  4.9399895037984060e-02  4.3821382665963526e-02  4.8280484566236695e-02  4.3328818556883385e-02  5.3624230567574593e-02  4.1261890487111971e-02  4.5954945256985263e-02  5.1048191083714244e-02  4.4903943411373083e-02  4.0407173704108124e-02  5.2845036678954682e-02  4.6275799163056568e-02  4.8254509541845778e-02  5.1796350835265764e-02  4.1316283020260400e-02  4.6415440072460526e-02  5.1170875394756225e-02  4.1921683068547780e-02  4.0682750363589815e-02  4.1544634044469723e-02  3.9835409906435922e-02  5.1464004398375042e-02  5.3928040443013012e-02  4.9181559208275216e-02  5.3506813884112818e-02  4.5884295825329720e-02  4.6827425911769714e-02  4.9675331786350106e-02  4.2579673201102050e-02  4.2818464708636615e-02  4.8905679269408385e-02  4.1683296085572218e-02  5.2147024829745342e-02  4.6867577369812313e-02  5.4542047990968658e-02  4.3943935052504282e-02  5.3311621923929388e-02  5.2386434825528128e-02  5.0178307699752678e-02  4.8758315645901266e-02  4.8765330027711107e-02  4.5558763068875942e-02  4.4878768774752657e-02  4.7020748395708252e-02  5.5902877188231295e-02  3.9923959594301305e-02  4.1617182710524385e-02  4.1536278419854411e-02  4.1609439588626319e-02  5.0295176129461841e-02  3.9846803968225139e-02  5.3458147443668273e-02  5.0798739578498869e-02  5.0169137950757815e-02  4.2691167300741711e-02  4.7810883065751764e-02  4.7741975341437572e-02  4.2661083898881923e-02  4.7322943295419612e-02  3.9411415890272257e-02  4.0815538963152431e-02  4.4159964600013549e-02  4.2526288463207489e-02  4.4561565645943095e-02  4.2455958145024612e-02  4.3557673699220242e-02  4.6578775628953475e-02  4.9809893624585960e-02  5.6461147028545711e-02  3.9449059149940485e-02  4.0130738432188076e-02  4.0523642156991092e-02  5.1957594152332726e-02  4.5129013593948886e-02  4.5489141401387420e-02  4.5010278378632321e-02  4.0688641998001013e-02  5.1555509196935190e-02  4.2987692925395816e-02  5.1618575886923916e-02  5.1473499024449011e-02  4.3627924555779102e-02  4.5433102552708209e-02  4.3938416221278413e-02  4.0409354381456243e-02  4.0452501599661045e-02  5.0551839600929002e-02  5.2953147569312992e-02  4.8908823325335332e-02  4.1022171373455908e-02  4.2148881551713424e-02  4.4740586219349086e-02  4.5384951918762816e-02  4.4878821015025369e-02  4.4207533795574273e-02  4.3536245611220312e-02  4.2347697046916988e-02  4.2593681033376248e-02  4.9727714670899321e-02  3.9438831652711170e-02  4.2756943556407960e-02  4.2925517775248098e-02  4.3741772817312050e-02  4.0075413301604787e-02  4.1028547225129997e-02  4.0169287931385203e-02  3.9439639607561520e-02  4.2637911792858314e-02  4.2545869533294638e-02  5.1073668139378220e-02  5.0947554316085324e-02  4.6317085927463336e-02  4.1810626324841560e-02  4.0494905213565989e-02  4.5961941631042308e-02  4.0064503512397515e-02  4.1262669196685205e-02  4.8675584611905374e-02  4.8132538789300301e-02  4.0969894582490521e-02  4.2262976205069823e-02  4.5932998175087177e-02  5.2153374159208690e-02  4.3817615642553619e-02  4.1476263400144174e-02  4.1430644601881506e-02  5.7371879188667735e-02  5.7412426670500630e-02  5.6361187845863935e-02  4.4994505603744510e-02  4.0059497192569619e-02  4.5382143410606882e-02  5.3016073845781934e-02  4.0079776942050192e-02  4.1403574066378811e-02  4.7327351285098296e-02  4.5845040051621780e-02  4.2793628170112633e-02  4.0043596906719124e-02  4.7352964693083706e-02  4.1434350136631631e-02  4.0118415509864412e-02  5.3272976178152832e-02  4.7785617988621382e-02  4.6278158128189445e-02  4.1382020692583989e-02  4.0049999454043646e-02  4.5691443905523169e-02  4.4733317430478099e-02  5.4947815502190765e-02  4.6863697204589362e-02  3.9472463625824676e-02  4.9185537782590022e-02  5.1930342011188881e-02  4.8985321061824405e-02  4.5865901671973561e-02  4.9673110274705591e-02  4.9316318686025734e-02  5.0804837884074174e-02  4.1413301051217245e-02  4.4448604818213583e-02  5.7063861934379359e-02  4.9021080127358375e-02  5.4127020709645424e-02  5.4539660585451864e-02  5.4043670355014020e-02  5.5245139319570230e-02  5.5274178002976168e-02  4.0067696813875120e-02  3.9419764300426909e-02  4.8542442444520856e-02  4.8138553839825786e-02  4.8664802490530498e-02  4.8388667986090060e-02  5.7884465204563675e-02  4.5153091575718826e-02  4.0929961818900108e-02  5.1388425220686748e-02  4.1897937655108394e-02  4.1444681588100114e-02  4.1189555599534321e-02  4.4092645287230559e-02  4.2005463523427052e-02  5.0826762781773963e-02  4.2981612254524466e-02  4.7789570517556584e-02  4.1644694610988416e-02  4.1143127267752329e-02  5.8952052961503305e-02  5.8692455085470059e-02  4.2754019148835309e-02  4.8856557755249636e-02  4.0893216110415999e-02  5.8128929530069436e-02  4.3077179415395322e-02  3.9998553359340459e-02  5.3889701911919247e-02  5.4021923996039084e-02  4.5944128978282976e-02  4.3056934450003845e-02  4.6920953237207505e-02  5.0927291768786832e-02  3.9824627439526514e-02  5.6983581301505153e-02  4.1732222678244994e-02  4.3199240487853861e-02  5.1628708318438313e-02  4.2311350402403247e-02  5.5529254784320498e-02  4.6351413172841402e-02  4.2651168774914962e-02  4.3468083318232244e-02  4.5034526871218290e-02  4.3144185498628404e-02  4.5688003317587642e-02  4.6792480729918061e-02  5.0092548149097381e-02  4.5389590248498889e-02  4.3810884591311772e-02  4.0703865787065314e-02  4.0027679788808071e-02  4.2908317976770763e-02  4.9874299793098785e-02  4.0465263077250985e-02  4.0047732108814078e-02  5.0132408060832662e-02  3.9927313823114263e-02  3.9878649414935255e-02  3.9916614789037581e-02  4.0729814572149511e-02  4.0139440043377661e-02  3.9916219138620236e-02  4.6701701539361887e-02  3.9945907409351333e-02  3.9451021600182309e-02  4.5088250144103545e-02  4.6326186402203817e-02  3.9432975024807852e-02  3.9445841122546309e-02  3.9447204816583294e-02  5.1760160243719544e-02  5.0504863504156138e-02  4.9244956195840288e-02  3.9850961342604047e-02  5.4281123433131510e-02  5.2666218728027070e-02  4.3832339477827553e-02  4.4154087954967142e-02  4.0161011217092910e-02  5.7723826503624225e-02  4.2012397174178116e-02  3.9460781085711424e-02  5.5197484836183544e-02  4.7586855200685355e-02  5.7990887492816834e-02  5.6783325397327590e-02  3.9813045137902313e-02  3.9467795884234005e-02  3.9404076175701706e-02  3.9617401516194618e-02  4.7973762757558117e-02  3.9852084628742061e-02  5.5536307200227931e-02  3.9467431225912543e-02  3.9500695411483211e-02  3.9453119350472299e-02  4.4267408750461007e-02  4.2242934829092818e-02  4.6825157225872910e-02  4.0470125684096456e-02  4.7700618667704926e-02  4.0599282336940039e-02  5.4674241056268509e-02  5.4924762577813015e-02  5.5832077834669223e-02  4.1455170383667563e-02  5.6145357375204777e-02  5.2917895931601566e-02  5.5202491939770955e-02  4.3696368813213586e-02  4.9758696690288651e-02  5.0926081380542720e-02  4.3096725913586292e-02  4.7989823878580175e-02  4.7402499656721581e-02  4.6836599924033155e-02  4.9241620136006699e-02  5.4394073184758689e-02  5.5555673807591473e-02  4.1344451090797388e-02  4.4938629447283274e-02  4.4296837812388606e-02  4.2041141677475982e-02  5.4083448769098888e-02  4.0112893575879556e-02  4.7582512626829526e-02  4.3459247531634493e-02  5.0766291850241764e-02  5.2275284969241782e-02  4.8059026703424733e-02  4.3890396326253689e-02  4.7891996353409558e-02  5.1458721757150577e-02  5.0932570007566215e-02  4.4094892488499758e-02  4.1038006095662050e-02  5.2612925455656372e-02  4.2172329585861923e-02  4.1699072906727190e-02  4.8097711216010489e-02  4.5979453205731317e-02  5.2619192452894738e-02  4.5565679125196865e-02  5.4260258599563030e-02  4.1438504241633096e-02  4.6374251505042388e-02  4.6030091818684865e-02  4.2777078504338234e-02  4.4024776073075485e-02  4.3771965857519753e-02  4.2941149779276974e-02  4.3044272769299688e-02  4.2596652044126361e-02  4.8634757544933280e-02  4.3424728215272310e-02  4.5536818713907905e-02  4.9074939881999513e-02  4.4851309755464912e-02  4.4508837398006512e-02  4.0975758970051401e-02  4.7582853684754206e-02  4.4868328606760814e-02  4.4527970381552921e-02  4.3217593349405621e-02  4.3896725875592214e-02  4.7130552111125192e-02  4.6870686061992968e-02  4.6009435040741405e-02  5.0409778545773637e-02  4.2085305285803044e-02  4.1746810334809661e-02  4.1646030675634771e-02  4.2115379383602998e-02  4.2508884365694923e-02  4.1751731215117327e-02  4.1382911068569866e-02  4.6871494262735500e-02  4.7827494378453315e-02  4.1498384082986103e-02  4.0199661836144797e-02  4.1959458039100068e-02  4.6069396088292781e-02  4.8378716233694892e-02  5.0218196672466166e-02  4.6569753899045517e-02  4.3403990012932617e-02  5.2901319977370458e-02  4.8838729133726055e-02  4.1144003437724758e-02  5.3439371834047199e-02  4.4287286807440776e-02  4.2759501902221310e-02  4.2368159501158187e-02  4.0113258632498039e-02  4.2524686167636529e-02  4.0568205155257102e-02  4.8315173070850717e-02  4.7032217887634252e-02  4.8388472771903994e-02  4.9499851906744739e-02  4.4014746452942489e-02  4.3798986387729139e-02  4.5178399765296529e-02  4.0933003694096713e-02  4.9993512196219211e-02  4.6917843993816995e-02  4.8351574662306301e-02  4.8916513811632256e-02  4.1622930830265178e-02  4.0359152660075129e-02  4.3764561805659796e-02  4.0367546637070359e-02  4.3678203016288907e-02  4.0997664167886680e-02  4.1115116701201604e-02  4.2939067979809974e-02  4.6930962439821658e-02  4.0929120454267179e-02  4.2773949600550067e-02  4.3933670648778449e-02  4.1439791873409917e-02  4.2058393882438018e-02  4.2558214084203107e-02  4.1265337035018057e-02  4.93322953737