<?xml version="1.0"?>
<VTKFile type="UnstructuredGrid"  version="0.1"  >
<UnstructuredGrid>
<Piece  NumberOfPoints="6486" NumberOfCells="12696">
<Points>
<DataArray  type="Float64"  NumberOfComponents="3"  format="ascii">0 2.5 0  0 0 0  2.5 0 0  2.5 2.5 0  1.25 0 0  2.5 1.25 0  1.25 2.5 0  0 1.25 0  1.25 1.25 0  0 0.625 0  0.625 0 0  0.625 2.5 0  0 1.875 0  2.5 0.625 0  1.875 0 0  2.5 1.875 0  1.875 2.5 0  1.770833333333333 0.7291666666666666 0  0.7291666666666666 1.770833333333333 0  0.9375 0.625 0  1.875 1.5625 0  0.642361111111111 1.163194444444444 0  1.341594827586207 1.883979885057471 0  0.46875 0.46875 0  2.03125 2.03125 0  0.3626104797979798 1.513178661616162 0  1.381740196078431 0.4564950980392157 0  0.9375 2.172619047619047 0  2.172619047619047 0.9375 0  2.096354166666667 0.4036458333333332 0  0.4036458333333333 2.096354166666667 0  1.684027777777778 1.163194444444444 0  0.3418803418803419 0.8693910256410255 0  1.642742622813391 2.162164207604464 0  1.275619849389031 0.8465650753054845 0  0.9136284722222221 1.434461805555556 0  1.732437511238546 0.3406962303960658 0  0.9714402568595876 1.029779313093998 0  1.52281746031746 1.485615079365079 0  2.1875 1.71875 0  1.06819722569879 0.2997236128493951 0  2.136114211309524 1.303478422619048 0  0.3125 0 0  0 0.3125 0  2.5 2.1875 0  2.1875 2.5 0  0.3200021620376328 1.192323085056694 0  0.6738456129277992 0.8304377375553881 0  1.757891808928991 1.861952730357003 0  1.5625 0 0  0.9375 0 0  0.3125 2.5 0  2.1875 0 0  2.5 0.9375 0  0 0.9375 0  0 1.5625 0  0.9375 2.5 0  2.5 0.3125 0  0 2.1875 0  1.5625 2.5 0  2.5 1.5625 0  0.7448220909826522 0.3003573636608841 0  1.027298850574712 1.871151477832512 0  1.331260495098891 2.197262878816185 0  1.207917681892289 1.582765010956622 0  0.4339993447432606 1.801186844743261 0  0.6337298768939392 1.443093039772727 0  2.049851190476191 0.6826636904761904 0  0.6584821428571428 2.219122023809524 0  1.89575676467455 0.9798457973793544 0  1.437570562095628 1.059380588255917 0  1.502090052505845 0.6987070896496241 0  0.2040860661083546 1.705323965099331 0  0.2083333333333333 0.46875 0  0.5070952039991439 0.2211150679997147 0  0.6916302856529919 0.5813591430410241 0  2.265625 1.953125 0  2.2265625 2.2265625 0  1.886424081252096 2.243391360417365 0  1.40625 0.202164758520858 0  0.2269345238095238 0.2269345238095238 0  1.152730869673694 0.5225850378741401 0  1.885631899587912 1.312095130148776 0  1.614808884009367 0.9049784971014416 0  1.890095442220658 0.5126535558463003 0  2.323168682795699 0.46875 0  2.268811725689575 0.2304742875213018 0  0.6002389442105756 1.967426444210576 0  0.1768313172043011 2.03125 0  0.2311882743104251 2.269525712478698 0  2.03125 0.176831317204301 0  2.280262553344767 0.6954945504579233 0  1.979219539285994 1.809922269642997 0  2.336309523809524 1.09375 0  1.09375 2.336309523809524 0  0.9314042474388009 1.662973812215543 0  0.1634067999087722 1.40625 0  2.337090640094896 1.40625 0  1.141616997467638 2.069311773587991 0  0.46875 2.338939559681489 0  1.542440307908715 1.734944797244472 0  1.556713687786879 1.956977865354753 0  0.8264238995344066 1.975424467820646 0  1.466326331454725 1.275271369760862 0  1.655675324257095 0.5444159974393489 0  0.3385416666666666 0.6479255698005697 0  0 0.78125 0  0.5236073939200119 0.984090461540625 0  2.091665741047893 1.519793517904215 0  1.71875 2.5 0  0.5356538886262603 1.623137930505009 0  0 1.09375 0  0.1932884281517095 1.015625 0  0.8569313582417669 1.2198915584249 0  0.8876981284879677 0.8329884081524883 0  1.115618488474214 0.7219586973356271 0  1.186950366204949 1.043465130075318 0  2.057459118787237 1.110823087309335 0  1.830651283878689 2.049810069572418 0  1.689107969301489 1.367247437031697 0  0.4921048768039656 1.298643370653124 0  0.8213975694444444 2.336309523809524 0  2.03125 2.5 0  1.049729400480002 1.283723261332814 0  1.308101375801673 0.6489479469700392 0  2.5 2.34375 0  0.4968777175037714 0.7562964879736076 0  1.40625 2.5 0  1.501347663534097 2.307027627307738 0  1.602813712048603 0.1926218191360736 0  0.8393082906308107 0.463778306132633 0  1.682663349152719 1.598471865581041 0  0.7774174680851571 1.560004941327907 0  1.554204170364662 0.3898593897892066 0  1.842184459051087 0.186443880058197 0  1.358107417651776 1.696381759610015 0  1.18859291992392 1.77598670078022 0  0.1875331222687418 0.7609599743339348 0  1.339536743965101 1.422080365801479 0  0.7788179348750389 0.9955343414928611 0  0.9062978492805438 0.1919636509126373 0  1.256007360640958 0.3160320559396114 0  1.09375 0 0  1.174986727221844 0.1594990293443933 0  2.34375 1.796875 0  2.318026474511116 1.589177949022232 0  2.34375 2.5 0  1.672742954892153 2.332882724550692 0  0.2683637361947215 1.874801596909639 0  2.174770749820102 0.5581009131310781 0  1.443279522965991 0.8870068372898454 0  0.3385416666666667 0.3571428571428572 0  0.78125 0 0  2.060421048269335 2.314363248763811 0  1.088078737088509 0.8967352118723447 0  1.087825368444708 1.454931510884769 0  2.018308232129541 0.8548495425854904 0  1.943987311736842 0.3246298523011434 0  1.71875 0 0  1.85337849796276 1.144833312386208 0  2.3486328125 2.1044921875 0  1.407588788651747 2.042968789119587 0  2.336309523809524 0.865366648092144 0  2.34375 0 0  2.5 0.15625 0  0.15625 2.5 0  0 2.34375 0  0.1638044648294291 1.242263417405867 0  0.356216654757926 1.032569427322806 0  0.3188217956111817 1.355736727000647 0  0.5924956460852111 0.36112522004736 0  0.6594216488965849 0.1603472116132387 0  1.841804599497131 1.72214349266521 0  0.15625 0 0  0 0.15625 0  2.115898634821499 1.894570904464496 0  0.7821877980253907 0.7129993435924866 0  1.003820447087786 0.4516053462784233 0  0.477562948779147 1.138333049293613 0  0.719493678605015 1.305655360135975 0  0.9772457618587566 2.020350128938537 0  0.8764738248887107 1.826219722709673 0  1.254787875123819 2.339010653832026 0  2.343597354852534 1.249982759769001 0  0.78125 2.5 0  0.46875 2.5 0  2.5 1.40625 0  1.09375 2.5 0  2.5 0.78125 0  2.5 1.09375 0  2.03125 0 0  2.5 0.46875 0  1.40625 0 0  0.46875 0 0  0 0.46875 0  0 1.40625 0  0 1.71875 0  0 2.03125 0  2.5 1.71875 0  2.5 2.03125 0  2.005424054645407 1.653223486966518 0  0.1538730573856537 1.559850281736677 0  2.33984375 2.33984375 0  1.166539506212474 1.922878979538754 0  0.3914885633949916 1.65887232812171 0  0.5795503163042564 1.766243562569382 0  0.399533125920212 1.946786875081388 0  0.7866324979014098 2.127719094551316 0  0.3654683023546834 0.1495701132219454 0  0.1527388747131078 0.6116379440619215 0  2.013737577140188 1.391056634712135 0  1.17635437372994 2.213329084238133 0  1.737118141866284 1.010577140843115 0  2.200707118087222 1.164723314085963 0  1.697018908736685 1.993548551451517 0  0.5387621649009668 0.6070503962352419 0  2.032805785855952 0.5330427622570983 0  1.082699501358059 1.667818725183932 0  1.503819781540653 0.5468420196858188 0  2.015409142866072 2.175941657590429 0  1.752057611265444 0.869642097111018 0  0.612251684107783 2.356045720700959 0  1.902817102342857 0.6607642211999982 0  2.159616561739693 0.7867739969338844 0  0.5120038350106624 2.197302352398502 0  1.888200216011548 1.919501662489862 0  1.495909909726654 2.16028358757309 0  0.489139876703609 1.443203008943564 0  0.8819175670410521 0.3301172743913011 0  1.882591144370812 0.8155965192707721 0  1.133979796994841 1.172526771862882 0  2.206217447916667 2.084147135416667 0  2.20361328125 2.36279296875 0  1.395746985657004 1.556054166359645 0  1.704383111516207 1.734750450338683 0  0.9575737847222222 2.36274223823052 0  1.035150984253136 0.1302833343179028 0  1.383966125325753 0.7651479963479179 0  1.64003252158672 0.6824316405528895 0  2.22550785055421 1.487078576356817 0  1.760964431499756 1.48495222505201 0  1.276460980673788 2.004207003584658 0  0.1341477688427096 1.828777507920502 0  1.542261434180652 1.155296658359034 0  1.334627911613854 0.9696897472490321 0  1.30794231473696 1.119420615785191 0  0.7028260459857245 0.4438906910721139 0  1.625757433094055 1.84268057552138 0  0.9818707849053143 1.165603626132254 0  2.0086489901463 1.243134585689553 0  1.934584460420609 2.374094051915812 0  1.798434376789567 2.38671361912528 0  1.206314791201715 1.382064292497919 0  0.6333752893366955 0.7023738550008095 0  0.7796219811205605 1.42573253164258 0  1.564399711917382 1.026040828857629 0  0.3385416666666666 0.4889012896825397 0  0.1041666666666667 0.390625 0  0.989112246382566 1.543537365516289 0  2.025724425454636 0.9846960595520872 0  0.6602885475034063 2.086117390485779 0  1.607130551925032 1.267198646640915 0  0.1317864544877056 0.8896173683400176 0  1.755387840017567 2.230364320056445 0  1.301540702984401 0.1216289692748247 0  1.433170657577442 0.3331052752740999 0  1.500459610550388 0.113513924782439 0  0.6494291520606965 1.029586599619295 0  1.010146149868299 0.794897284196169 0  0.3700844198238017 2.235390157870766 0  0.3360891767780704 2.36656279435396 0  1.876856241037701 1.437150669863757 0  1.778674102957329 1.245979347269706 0  0.5472829890977179 0.1005517127039925 0  0.4669074189005698 0.3416784232954367 0  1.472765289289269 1.850899166481903 0  1.555853593327178 1.608452097912802 0  0.6708955559113426 1.646561631116984 0  0.8164699620322933 0.5924479455478063 0  0.3167738989468366 1.758696809749795 0  0.2788007305565096 1.605499483471246 0  0.7821720982350511 0.181524936294752 0  1.376812251214195 2.313340247908297 0  1.785652202614777 0.5962261755537186 0  1.761467296310972 0.4679567244718574 0  2.2265625 1.8359375 0  2.3828125 1.9140625 0  0.5279531607054191 2.071552361614785 0  2.397573269551114 0.234375 0  2.383578172599618 0.3589298466020009 0  0.1024267304488855 2.265625 0  0.1164218274003825 2.141070153397999 0  0.2696857594953064 2.135405441512016 0  2.164961300137334 0.1375322943529536 0  2.137757548369486 0.2724194778647587 0  2.238873711826398 0.3626419179496562 0  0.1001414910226386 0.234375 0  0.2176339285714286 0.3478422619047619 0  0.2503620791333544 0.1061694061057066 0  2.336445461915368 0.1250451055247424 0  0.2154004640409726 2.3918124
[...]
<PointData  Scalars="f_16-1"> 
<DataArray  type="Float64"  Name="f_16-1"  format="ascii">5.6545438028568137e-04  1.8548148715773700e-08  8.2671575387063307e-08  9.2432458563041723e-04  8.8917923349500843e-08  3.4704465712353395e-06  5.9913783232899633e-04  5.6549293707497796e-04  1.1679043823006564e-03  5.5550403092673205e-04  8.4860993739109775e-08  5.6551657158541123e-04  5.6549697813242040e-04  8.2938853017305183e-08  8.5615994003884899e-08  1.9920418603480599e-04  1.0078270603230118e-03  1.4704349871207415e-06  6.0228606229942045e-04  2.2679498294164737e-04  4.9346635779947746e-04  1.1465657700768228e-03  1.1140312865089085e-03  1.3046020588465322e-03  1.0014697449864929e-03  5.6852005000296302e-04  6.0471509360179543e-07  5.8409248979740351e-04  1.0248105172751178e-06  8.4678515179063785e-08  5.6553136195944189e-04  1.6594627291770429e-04  9.7622830133864587e-04  1.1009439487269716e-03  1.7042928320229052e-04  1.1805537144613011e-03  8.8381363808826834e-08  1.3880361413608942e-03  1.0335295540661608e-03  2.9694872938961474e-04  5.5236360791638516e-07  4.0861809524047338e-05  5.5743079523986989e-08  5.6328851782264730e-05  5.6562895137299621e-04  1.1348897542595205e-03  5.9492349682399625e-04  1.8466130379911939e-03  1.1664612447891197e-03  8.7177865481881360e-08  9.0237175864470446e-08  5.6545215478670714e-04  8.4026381388583213e-08  1.7036343013319294e-07  5.6533428535553815e-04  5.6549857073585116e-04  5.6787984479515904e-04  8.2460420609974366e-08  5.6549199803757890e-04  7.3807622071144136e-04  3.9222863943239064e-05  8.3940111164010393e-06  7.3329849377414772e-04  7.4971024834839123e-04  1.3486867678165718e-03  5.6627945190128488e-04  6.9387373728668170e-04  1.5721621034085322e-07  5.6615543634249495e-04  1.1254906789551932e-05  2.8791933153038700e-04  8.4914205714988972e-06  5.6552183588374800e-04  3.0877873838906049e-03  1.5059437309195801e-05  7.2826303596826964e-04  5.1177321418470684e-04  9.6685103762611871e-04  1.1763674907196479e-03  9.0057114681974562e-08  2.5121721532820349e-04  1.0855205799327224e-05  1.5121344444244262e-04  3.6031025292403786e-05  1.0117523267919391e-07  8.3262184059420619e-08  8.3518321342052346e-08  5.6766702795976655e-04  5.6549617627928421e-04  5.6548798246365203e-04  8.4760947853306953e-08  9.6506088740952426e-08  7.4596359531010231e-04  1.9456541227074242e-06  5.9066597465159271e-04  8.3547305244819736e-04  5.6565445779514767e-04  2.8908996779003956e-05  6.9005070252963667e-04  5.6549979019397971e-04  1.2894940706409638e-03  1.2257481472067650e-03  5.8915933712750735e-04  6.7905842684808592e-04  2.9508515004552920e-07  2.1153279986879654e-03  5.6450405179710487e-04  1.2929979308211219e-03  1.7622171574604358e-04  8.7042698290252672e-04  5.7991437599540718e-04  5.6545263747094108e-04  5.7957894511136750e-04  1.4982603191493549e-03  1.0461375378628915e-03  1.5918891701256660e-04  7.9862100591006748e-04  1.4148707740511701e-05  1.2082578881244545e-03  4.4452475114291123e-04  6.6097542904652157e-04  5.6747948297396981e-04  1.1155064025440678e-03  1.5086781732298526e-03  1.7950953217812137e-05  7.7441407914533109e-04  2.0692561430045780e-03  6.4757000784086954e-04  8.0990390252733179e-04  8.7257912922555819e-08  7.2656740321170961e-05  9.1137324922263942e-04  7.4009516753581039e-04  1.1919748793274729e-07  8.5672846883707753e-08  1.3321633047631524e-03  1.0531070343233434e-03  7.3369713866875037e-04  1.2670061287739429e-03  1.7306550946920650e-03  2.1829762152589008e-07  1.9166924340327535e-07  8.9724477055021103e-08  9.5201506067257661e-08  2.3138323689419070e-04  9.8348383327174758e-05  1.0539475456772282e-03  9.5889368019920831e-04  5.6551701899198916e-04  8.6468305974227291e-08  8.6316457325873614e-05  1.3502457924862150e-03  9.0361177789719367e-08  1.1576775093755892e-03  6.1999743270562996e-04  1.3964048780192408e-03  1.1405118286873400e-06  8.5360116533496133e-08  8.6406549949653284e-08  5.9228006501272295e-05  6.2449962129570264e-04  9.8755294297442906e-04  1.7386546727572630e-07  8.3343046004824821e-08  8.2602603392800324e-08  5.6545388437918213e-04  5.6547811501839196e-04  5.6635081333514801e-04  7.1380036982798540e-04  5.7165384033947269e-04  1.3330972077421795e-04  5.2112388041579248e-07  8.3935775091206137e-04  1.4940579520016617e-08  6.0354517222852683e-07  6.5525098277431908e-04  9.5531955332181539e-04  1.5330953160695107e-05  8.0147578336880164e-04  1.0242421911927601e-03  6.2297542639483329e-04  6.4962907470061840e-04  6.3493099088172771e-04  7.7810981409297605e-06  5.6596088092348987e-04  5.6545814324693940e-04  1.2304128929225871e-05  5.7625954040684631e-04  9.1041829984171066e-08  6.7224535337881058e-07  8.4846446683998647e-08  8.2370344236269802e-08  8.7967843207233635e-08  7.5734107946462465e-08  5.1416756021025270e-04  5.6549789638077580e-04  5.6549801757519878e-04  5.6549568969023630e-04  9.5926417001657898e-05  3.6523538607157515e-04  4.2848469095423960e-04  5.6552916815766807e-04  9.4955600176633193e-04  8.3281919903898966e-04  5.6692162950360697e-04  5.7319237135769561e-04  5.6561734213790473e-04  5.7155674440039124e-04  5.0349040420584901e-06  9.3966363554377199e-04  1.3022636558673379e-04  6.4326024238476004e-04  4.1197330694720514e-05  8.4670858014985139e-06  1.2484627443352363e-03  1.7920589410468962e-03  9.0239538149333322e-08  1.0597350803787555e-03  9.0254322339474067e-07  1.1414312456460589e-03  8.9235874608038481e-06  5.6561549701635266e-04  2.4547440591761586e-07  2.1378239665827884e-07  5.6559927065993421e-04  1.0614968279980658e-03  9.5049766377062193e-04  5.9698497853233595e-04  5.2363830758344495e-06  1.7438783346155172e-06  1.2880662369475705e-03  8.1527110593503842e-04  1.0955250980897128e-03  1.3209672179576473e-03  1.1011276496448500e-03  5.7192907924918999e-04  9.7930062047726644e-08  4.0899373991899111e-05  2.1278303372350508e-06  8.4098334251019217e-05  5.5006520827768554e-04  8.7288054833983635e-04  5.6549872428824472e-04  2.9923436384124105e-04  2.7641468510194750e-04  6.7434422244732879e-04  1.8533234524595741e-04  1.2702102222719646e-03  1.5521826854346752e-03  5.5747340274813013e-05  1.1282168939314610e-03  1.0221342309760829e-03  1.4215495466681773e-03  1.6985969097847926e-03  9.1899286900132152e-04  1.2426088483195514e-04  2.7253026299525998e-03  2.7678108000429745e-03  1.1042037167862848e-03  4.8185103147096464e-06  5.6732205549695847e-04  3.9755340875331519e-04  5.7850192200931821e-04  1.1217418383487792e-03  8.9234192282256205e-08  1.1992129996269668e-07  8.7569680899977933e-08  1.5430319500482983e-03  5.1580991918720508e-04  5.6549624009139129e-04  5.6547845654317925e-04  2.9006139446405277e-04  1.7189838007111897e-04  2.3096819027184300e-07  3.2155609489639377e-04  1.2707091533073257e-03  1.1592662400802809e-03  6.1303031712606833e-04  3.8959061616430696e-04  5.6564001080070610e-04  5.6577242268905593e-04  4.1047611940532232e-07  7.0979088646600506e-04  2.4250389643436417e-07  1.0599087694008538e-07  4.0457510149802565e-04  3.1645792766441465e-04  5.6584748224960154e-04  8.2863569014034706e-08  8.2906044040782058e-08  5.6548773870272989e-04  5.6549384469458189e-04  5.6549582018227036e-04  8.4085467692705690e-08  8.4210432580242943e-08  8.3710496528469374e-08  4.3815869555910897e-04  3.5268170816666975e-03  4.8846584230621896e-07  8.3239070635932747e-08  5.6547204388226709e-04  6.0041117528861242e-04  2.6932539734878108e-07  8.6519410252528924e-08  7.5290137777219435e-05  1.3542661123235801e-06  4.2828712277893780e-06  5.6550516932957163e-04  7.5626674323839803e-04  1.5397595362871782e-03  5.6549663590554314e-04  8.5278171489646655e-08  8.3828134498920469e-08  9.7399983116309896e-08  7.5200551507217321e-04  6.4551401256041996e-04  5.7908283687738594e-04  5.6664500198751861e-04  2.3397154922244270e-05  1.8186149118039479e-04  7.3688681219416790e-04  8.7809894644735145e-08  1.5039627827490498e-03  6.7843824606446314e-04  7.7786969400452989e-04  1.0697930164858010e-07  9.6700266707821982e-08  2.4811178619469639e-06  7.3228427814571028e-04  5.7273221057545720e-04  4.0415695324794512e-07  5.8246077700075619e-04  8.4123473621380059e-04  4.6599880505745372e-04  8.9504266987156401e-04  8.6559554121028262e-08  5.9405190919498683e-04  5.6644301199998491e-04  5.6552916876070544e-04  3.2515978963832873e-05  2.5219474264328334e-05  1.6524297012499287e-03  8.6784965720590646e-08  7.7820908445176682e-06  1.1895520623997134e-03  8.5967624162599030e-08  8.2581223997624784e-05  1.1693354793304970e-03  5.5705297740255423e-04  5.6592099678205569e-04  1.4376669459108772e-03  1.2183122655350942e-03  2.3685299645701940e-03  2.2267059226040837e-03  1.1549077186403866e-07  5.6549926478789410e-04  5.6560113898860621e-04  9.5706538245452418e-06  2.3109524530577352e-06  6.3730524403868229e-04  5.6547052937337737e-04  9.3424036985137611e-04  3.1139059950350661e-04  8.3138971840370198e-05  2.9445344927455814e-06  1.1456017743965480e-03  9.1268070517248567e-08  1.2105400459605639e-03  5.8701173806899266e-04  6.3174740310576469e-04  1.0465551509420596e-03  5.6550413125029469e-04  1.2986651350397696e-04  1.0230804320729935e-03  1.3188783596789148e-03  1.2976862629967706e-03  4.4699917051664075e-04  7.1835296713117865e-04  1.7711269118239384e-03  6.2141966113558845e-04  1.4242872982126846e-03  1.0348449676351149e-03  4.8566998214951912e-07  1.2055267820157433e-03  9.0028332619784053e-04  1.2445413648153796e-03  7.0161397980826861e-04  6.1491138296624454e-04  5.9719411685505098e-07  9.2626819935806982e-04  1.0072747334501768e-06  1.2878148749447304e-05  5.7077096823104901e-04  6.5504019356722937e-04  1.4826797447544747e-03  7.2659659127233885e-04  1.0432125131013801e-03  8.8925808299905306e-08  1.8090321686357766e-04  1.4193710386455980e-03  9.8157926396966882e-04  5.6685013271098178e-04  1.7561502657106527e-05  4.0899191559593823e-06  1.3891205765819942e-03  2.3820124077588186e-05  8.2281869371227839e-04  6.1775365578759325e-04  1.9283589769086987e-03  8.2938628553678981e-08  3.6250766822068619e-05  9.0033214570387849e-05  2.5903047264840711e-04  8.4198639810094409e-08  5.6951535361121511e-04  5.7605694571622042e-04  2.9098645825137946e-04  2.2773608666352982e-03  1.1128721395205013e-03  5.6547152825074708e-04  1.3965515753746290e-03  1.1303019707157864e-03  9.4043758078500052e-04  9.5484121733735981e-04  6.8285347441018418e-04  6.3738643033915481e-04  5.7144773302136170e-04  8.6389606162846195e-04  1.1989558677177404e-03  1.1123185494815121e-03  8.9160111076119679e-08  1.4209693495837920e-03  5.6743674466267608e-04  5.6643461727272435e-04  8.4729940558600983e-08  9.9697131587807561e-08  5.7274330096282586e-04  8.8174631370487716e-08  1.0736098707335832e-03  1.1428993393869629e-07  8.5678933583277863e-08  5.6549953102719901e-04  9.9302515223274684e-04  8.6146996312095678e-08  1.0689619456667910e-03  1.8118834666140085e-03  1.1499501758152608e-03  1.1441157637374639e-05  7.7946034673478568e-07  8.3688784136137782e-08  1.1910313758413402e-03  5.6694616761224703e-04  8.1002610890043439e-04  4.7361309601097479e-04  2.7811286125230956e-07  5.7071258583245787e-04  2.5907169369345114e-04  1.8649444636952821e-03  1.4737023023454307e-03  5.7542550871122762e-04  1.3147337514735097e-03  1.1758663907316718e-06  5.7049980646961052e-04  8.4402035697841274e-08  8.4580061736733313e-08  5.9073991566619820e-04  5.7475560901151064e-04  1.0270668958382184e-03  2.5086802753118141e-07  1.2489311246448385e-03  8.5188950871190128e-08  3.7988860071544321e-05  1.2940711929864529e-04  1.7269687219825207e-07  2.3248729921898397e-07  1.0676265616788354e-07  1.1886772472099528e-03  1.0123655079386175e-03  1.3670814840984556e-03  1.2583153373650826e-06  5.6545355413422163e-04  1.1728605992239432e-03  1.0946646827241881e-03  5.6557431192125901e-04  8.6569349947980816e-04  7.9510010135179184e-04  2.6869948419874318e-04  1.3900236622389746e-07  1.2392116281713273e-03  5.6592019336012991e-04  6.9899095459167266e-04  2.2399012442523339e-07  3.1270715514623859e-04  8.1992650037242509e-05  1.1269215539357147e-07  5.6347982704464414e-05  7.4805661265672197e-05  1.1928381875366059e-03  5.6549865399402040e-04  9.3390673779199923e-04  1.2177407921301755e-07  1.5927920221618102e-04  9.6178920433055216e-04  7.3638970954279890e-08  8.2442354491772193e-08  8.2807774767888859e-08  5.7586208072392603e-04  9.7401104658436423e-08  5.6564335314710065e-04  5.6551494994839006e-04  1.4666316344961755e-05  1.1453507038503247e-03  3.3344913211191434e-06  8.3678491106211218e-04  6.0656358256507546e-05  9.1942406519228892e-04  3.1398103144003700e-05  5.6549752359481744e-04  5.6590188090228444e-04  5.6547218349556371e-04  5.6549151824442871e-04  9.0502471300387357e-08  1.6438728997550673e-06  8.5032170021185401e-04  1.2475822071463375e-07  5.6767295150088250e-04  6.0016443680618696e-04  7.4452996327760188e-05  3.0123242566230339e-05  5.9488270902052201e-04  5.6549577240303688e-04  4.7593203677560327e-04  9.6562721997163459e-08  8.9463277156531196e-08  8.4903119541059802e-08  1.4899117773318169e-06  3.3372713273639354e-07  3.7768097187094014e-06  2.0585274198452414e-04  3.6196784980379568e-04  1.3478949116775958e-04  8.2652248720917872e-08  6.3715982133381041e-04  8.5576105742534448e-08  6.0829791866375265e-04  6.8703810878905671e-04  6.0448269055906008e-05  1.0200590253544460e-03  9.2462975205997392e-04  2.6116491601411133e-04  5.8735156108759778e-04  8.0924741646467852e-04  1.4296218124862413e-04  1.7541090953100184e-04  8.3276438353535721e-08  5.6549262835049947e-04  7.1089059462483043e-04  1.4723041375073504e-05  6.2617130803500876e-04  5.8140651667973526e-04  8.3657650008689256e-08  9.9319912290073359e-04  3.0481767411673424e-03  1.1933140100326603e-03  8.4590908461782918e-04  8.2862747032947306e-08  6.9877825353372651e-04  5.6519482797478269e-04  8.5019900690109887e-08  5.6548199926256034e-04  8.8088100927237101e-08  5.6429522601505610e-07  9.0790346317715283e-04  8.0050814711501528e-04  1.2184448086435561e-03  1.1103728615914344e-03  4.5855920995563191e-04  7.7340018177241758e-04  5.9795616168479215e-04  1.2649847461785005e-03  1.1766886357299748e-05  1.5904503842291784e-07  6.3481810770751163e-04  1.2555280494720386e-03  1.4386820478905892e-06  7.1966091727142373e-06  2.7019073436032040e-04  1.2565004016805385e-03  6.4016758295752424e-04  7.9809668375269691e-04  1.2280355860705104e-03  5.8645565706299629e-04  5.3814475058042870e-04  7.3050296571843210e-06  4.6486914867608897e-05  5.4208592931300396e-06  7.6497577259132594e-05  5.6668091384961172e-04  5.4497178677879835e-05  1.2463648242378560e-07  3.8859417881889501e-06  5.3697817942210111e-04  6.4421079626297782e-05  9.6704952197133776e-07  3.0282311681083979e-07  1.3966639545751345e-03  1.2790172698700123e-03  3.9782144441028106e-04  5.7032321775365676e-04  5.5473941132867946e-03  1.0517285115156183e-03  4.8264042146758987e-06  9.0016269555458438e-08  5.5706577053320162e-04  8.4157453805614286e-08  6.5620901699985329e-04  1.0150464046598095e-03  1.1244391726074193e-03  3.8939719954413299e-04  6.3828707557361418e-04  2.6648315511527596e-05  6.8282722322720387e-04  6.0909658605805847e-04  1.8207398164866817e-08  2.2218070594744588e-08  8.3468280386163459e-04  8.8426114876629314e-08  9.0297970044113038e-04  3.4091247259844763e-05  5.6549407500287624e-04  8.2614660511900153e-08  1.0589565115812847e-03  1.5037250125062870e-03  2.5681323652858912e-05  2.9066446440655043e-04  7.9854996885933018e-04  2.0970723297841438e-06  1.0671994018075850e-03  2.0764524613647381e-07  8.3863492501665043e-08  8.4933526918295284e-08  1.6491993130218674e-07  7.6607697454320142e-06  2.5939572206845189e-03  5.6563318453771319e-04  5.7623803409269174e-04  5.7801443399793011e-04  6.8574987719649864e-04  1.1177789449387382e-03  8.6369160281052065e-08  1.0081408854849749e-03  1.5403595268982345e-03  1.2380848826663044e-03  2.2874252930265765e-04  1.5247624964920925e-05  4.9794195398417000e-06  5.6549466426703118e-04  5.6557792739198726e-04  6.7081702195697572e-04  5.0556540691807247e-05  8.9334944579498326e-08  1.1080849783821262e-03  5.6656539628640332e-04  1.1363409664981580e-03  5.6546675542134964e-04  5.6545515620551171e-04  6.1983299682481514e-04  5.6549839424489346e-04  5.6564537949224984e-04  6.3772942972109981e-05  8.5958148953715214e-08  8.6802941710293147e-08  1.5399467425982515e-06  6.3851048455604061e-06  2.3201749386781874e-05  5.6539713573260781e-04  5.6548140278074328e-04  5.6549716575422283e-04  5.8592684614972165e-04  5.6234500724531254e-04  9.0301510127261015e-08  8.5240729950487909e-08  5.6549650359393258e-04  5.6545246006645849e-04  3.2222877205855629e-08  5.6548637482034514e-04  8.2522084801224336e-08  7.9822736215502250e-08  8.7611330042575087e-08  4.1442617136749402e-06  3.8732290151942107e-04  9.4561372293087585e-04  6.7134665476339798e-04  8.6847457263756285e-04  9.8393704430612219e-04  5.6549854171622786e-04  6.8847372865020104e-04  5.4593753162020622e-04  1.3790531668841062e-04  4.5770523016346173e-04  8.2402451092195745e-08  6.2878957862970802e-07  6.8997460205545258e-04  1.0062712394572340e-03  5.6636808196437011e-04  3.4519058407465960e-06  6.1182509244664493e-04  1.0226823867374797e-03  2.1164730563636696e-03  1.7032095286268836e-03  2.8171001984235840e-04  1.1575143780815480e-07  1.6514933987039498e-03  6.1501001599241923e-04  5.6553065180670590e-04  1.2665442084196313e-03  2.6424042061992910e-05  5.9788267578519873e-04  5.6556728563546960e-04  5.6550105862869569e-04  5.6554507793328849e-04  5.6584097438202371e-04  7.7698353632027007e-04  1.6914840373493446e-03  3.9030636318685237e-06  1.2778602784388772e-03  6.6501814740925729e-04  1.9982171348158640e-05  1.9456787610601953e-03  1.9718172975331429e-05  5.6570969704584939e-04  6.5549596571894250e-04  1.4383142338916545e-03  8.2235415579717439e-04  1.2474751021979897e-03  6.0306331296345087e-04  6.8875525686465862e-07  1.6290990522834202e-03  1.6174574509592314e-03  8.6735680959560553e-08  1.1707720056302608e-06  1.6188428087081299e-03  4.7084099462498835e-07  1.2395515472658513e-07  9.6912819060084368e-04  8.9040993810851648e-05  4.3670415858359607e-04  2.7911379023705781e-04  4.9125620390343843e-04  1.5946642373307628e-04  5.8220003540730594e-04  5.9076095568826232e-04  1.0637849440333063e-03  1.7352276998074226e-04  1.0248490545605046e-04  1.3926294892178926e-04  7.0566926488094524e-05  5.6718031000674751e-04  5.6550799074368634e-04  7.6663477668113215e-04  5.6839022721425728e-04  7.8127724560089504e-05  5.6582919414485233e-04  5.6553796907550004e-04  7.3034453956703999e-04  1.6246305097508530e-04  4.2696395070931253e-07  1.5440233620216803e-07  5.6550147014362579e-04  7.4372156995818344e-04  5.6681926289081283e-04  5.7103840244414751e-04  5.6673333490229788e-04  7.5857523878673154e-04  8.4101233277561743e-08  6.0862422921924850e-04  6.3789761805718910e-04  5.6572854354656631e-04  5.6552532942939207e-04  5.6551591943386080e-04  9.0834439395348924e-04  8.1071551054331546e-04  9.3034547700235464e-08  1.1426459272020307e-04  1.1844109084187173e-07  4.5195474226016776e-05  9.0867654995970719e-04  7.8755450257716455e-04  5.7007849433291674e-04  5.2714473811729570e-04  8.4921998025043803e-08  1.0058029966532652e-03  9.0870828482706638e-08  1.0273919737652437e-03  1.7255189621092374e-03  8.5495199148601455e-08  1.0649728597204359e-03  1.1834314338828218e-03  3.5840539963813916e-04  1.6274816451530881e-07  5.6546498123666473e-04  5.7934122445123509e-04  1.3607393441200514e-03  7.8220764668347027e-04  6.1037245139186408e-04  1.2351987024622967e-03  1.2328642572242072e-03  5.8127115707948794e-04  8.3227333831211469e-08  3.0919009674244489e-06  1.2345985052668533e-03  6.3403039871777489e-04  6.2170859437736948e-04  5.6574944728241124e-04  5.6552499425230936e-04  9.9007376540954358e-08  5.6546395708748619e-04  2.1765642919761434e-07  8.3487308097053013e-08  1.1386357861938982e-03  5.6560648961275753e-04  8.7199796798985918e-08  1.0167147262539001e-03  8.4466260698925557e-08  1.1344855695589297e-03  5.6548768434551042e-04  5.6549264471681142e-04  5.6549992651672642e-04  5.6548896794937902e-04  2.8765663185634