<?xml version="1.0"?>
<VTKFile type="UnstructuredGrid"  version="0.1"  >
<UnstructuredGrid>
<Piece  NumberOfPoints="6486" NumberOfCells="12696">
<Points>
<DataArray  type="Float64"  NumberOfComponents="3"  format="ascii">0 2.5 0  0 0 0  2.5 0 0  2.5 2.5 0  1.25 0 0  2.5 1.25 0  1.25 2.5 0  0 1.25 0  1.25 1.25 0  0 0.625 0  0.625 0 0  0.625 2.5 0  0 1.875 0  2.5 0.625 0  1.875 0 0  2.5 1.875 0  1.875 2.5 0  1.770833333333333 0.7291666666666666 0  0.7291666666666666 1.770833333333333 0  0.9375 0.625 0  1.875 1.5625 0  0.642361111111111 1.163194444444444 0  1.341594827586207 1.883979885057471 0  0.46875 0.46875 0  2.03125 2.03125 0  0.3626104797979798 1.513178661616162 0  1.381740196078431 0.4564950980392157 0  0.9375 2.172619047619047 0  2.172619047619047 0.9375 0  2.096354166666667 0.4036458333333332 0  0.4036458333333333 2.096354166666667 0  1.684027777777778 1.163194444444444 0  0.3418803418803419 0.8693910256410255 0  1.642742622813391 2.162164207604464 0  1.275619849389031 0.8465650753054845 0  0.9136284722222221 1.434461805555556 0  1.732437511238546 0.3406962303960658 0  0.9714402568595876 1.029779313093998 0  1.52281746031746 1.485615079365079 0  2.1875 1.71875 0  1.06819722569879 0.2997236128493951 0  2.136114211309524 1.303478422619048 0  0.3125 0 0  0 0.3125 0  2.5 2.1875 0  2.1875 2.5 0  0.3200021620376328 1.192323085056694 0  0.6738456129277992 0.8304377375553881 0  1.757891808928991 1.861952730357003 0  1.5625 0 0  0.9375 0 0  0.3125 2.5 0  2.1875 0 0  2.5 0.9375 0  0 0.9375 0  0 1.5625 0  0.9375 2.5 0  2.5 0.3125 0  0 2.1875 0  1.5625 2.5 0  2.5 1.5625 0  0.7448220909826522 0.3003573636608841 0  1.027298850574712 1.871151477832512 0  1.331260495098891 2.197262878816185 0  1.207917681892289 1.582765010956622 0  0.4339993447432606 1.801186844743261 0  0.6337298768939392 1.443093039772727 0  2.049851190476191 0.6826636904761904 0  0.6584821428571428 2.219122023809524 0  1.89575676467455 0.9798457973793544 0  1.437570562095628 1.059380588255917 0  1.502090052505845 0.6987070896496241 0  0.2040860661083546 1.705323965099331 0  0.2083333333333333 0.46875 0  0.5070952039991439 0.2211150679997147 0  0.6916302856529919 0.5813591430410241 0  2.265625 1.953125 0  2.2265625 2.2265625 0  1.886424081252096 2.243391360417365 0  1.40625 0.202164758520858 0  0.2269345238095238 0.2269345238095238 0  1.152730869673694 0.5225850378741401 0  1.885631899587912 1.312095130148776 0  1.614808884009367 0.9049784971014416 0  1.890095442220658 0.5126535558463003 0  2.323168682795699 0.46875 0  2.268811725689575 0.2304742875213018 0  0.6002389442105756 1.967426444210576 0  0.1768313172043011 2.03125 0  0.2311882743104251 2.269525712478698 0  2.03125 0.176831317204301 0  2.280262553344767 0.6954945504579233 0  1.979219539285994 1.809922269642997 0  2.336309523809524 1.09375 0  1.09375 2.336309523809524 0  0.9314042474388009 1.662973812215543 0  0.1634067999087722 1.40625 0  2.337090640094896 1.40625 0  1.141616997467638 2.069311773587991 0  0.46875 2.338939559681489 0  1.542440307908715 1.734944797244472 0  1.556713687786879 1.956977865354753 0  0.8264238995344066 1.975424467820646 0  1.466326331454725 1.275271369760862 0  1.655675324257095 0.5444159974393489 0  0.3385416666666666 0.6479255698005697 0  0 0.78125 0  0.5236073939200119 0.984090461540625 0  2.091665741047893 1.519793517904215 0  1.71875 2.5 0  0.5356538886262603 1.623137930505009 0  0 1.09375 0  0.1932884281517095 1.015625 0  0.8569313582417669 1.2198915584249 0  0.8876981284879677 0.8329884081524883 0  1.115618488474214 0.7219586973356271 0  1.186950366204949 1.043465130075318 0  2.057459118787237 1.110823087309335 0  1.830651283878689 2.049810069572418 0  1.689107969301489 1.367247437031697 0  0.4921048768039656 1.298643370653124 0  0.8213975694444444 2.336309523809524 0  2.03125 2.5 0  1.049729400480002 1.283723261332814 0  1.308101375801673 0.6489479469700392 0  2.5 2.34375 0  0.4968777175037714 0.7562964879736076 0  1.40625 2.5 0  1.501347663534097 2.307027627307738 0  1.602813712048603 0.1926218191360736 0  0.8393082906308107 0.463778306132633 0  1.682663349152719 1.598471865581041 0  0.7774174680851571 1.560004941327907 0  1.554204170364662 0.3898593897892066 0  1.842184459051087 0.186443880058197 0  1.358107417651776 1.696381759610015 0  1.18859291992392 1.77598670078022 0  0.1875331222687418 0.7609599743339348 0  1.339536743965101 1.422080365801479 0  0.7788179348750389 0.9955343414928611 0  0.9062978492805438 0.1919636509126373 0  1.256007360640958 0.3160320559396114 0  1.09375 0 0  1.174986727221844 0.1594990293443933 0  2.34375 1.796875 0  2.318026474511116 1.589177949022232 0  2.34375 2.5 0  1.672742954892153 2.332882724550692 0  0.2683637361947215 1.874801596909639 0  2.174770749820102 0.5581009131310781 0  1.443279522965991 0.8870068372898454 0  0.3385416666666667 0.3571428571428572 0  0.78125 0 0  2.060421048269335 2.314363248763811 0  1.088078737088509 0.8967352118723447 0  1.087825368444708 1.454931510884769 0  2.018308232129541 0.8548495425854904 0  1.943987311736842 0.3246298523011434 0  1.71875 0 0  1.85337849796276 1.144833312386208 0  2.3486328125 2.1044921875 0  1.407588788651747 2.042968789119587 0  2.336309523809524 0.865366648092144 0  2.34375 0 0  2.5 0.15625 0  0.15625 2.5 0  0 2.34375 0  0.1638044648294291 1.242263417405867 0  0.356216654757926 1.032569427322806 0  0.3188217956111817 1.355736727000647 0  0.5924956460852111 0.36112522004736 0  0.6594216488965849 0.1603472116132387 0  1.841804599497131 1.72214349266521 0  0.15625 0 0  0 0.15625 0  2.115898634821499 1.894570904464496 0  0.7821877980253907 0.7129993435924866 0  1.003820447087786 0.4516053462784233 0  0.477562948779147 1.138333049293613 0  0.719493678605015 1.305655360135975 0  0.9772457618587566 2.020350128938537 0  0.8764738248887107 1.826219722709673 0  1.254787875123819 2.339010653832026 0  2.343597354852534 1.249982759769001 0  0.78125 2.5 0  0.46875 2.5 0  2.5 1.40625 0  1.09375 2.5 0  2.5 0.78125 0  2.5 1.09375 0  2.03125 0 0  2.5 0.46875 0  1.40625 0 0  0.46875 0 0  0 0.46875 0  0 1.40625 0  0 1.71875 0  0 2.03125 0  2.5 1.71875 0  2.5 2.03125 0  2.005424054645407 1.653223486966518 0  0.1538730573856537 1.559850281736677 0  2.33984375 2.33984375 0  1.166539506212474 1.922878979538754 0  0.3914885633949916 1.65887232812171 0  0.5795503163042564 1.766243562569382 0  0.399533125920212 1.946786875081388 0  0.7866324979014098 2.127719094551316 0  0.3654683023546834 0.1495701132219454 0  0.1527388747131078 0.6116379440619215 0  2.013737577140188 1.391056634712135 0  1.17635437372994 2.213329084238133 0  1.737118141866284 1.010577140843115 0  2.200707118087222 1.164723314085963 0  1.697018908736685 1.993548551451517 0  0.5387621649009668 0.6070503962352419 0  2.032805785855952 0.5330427622570983 0  1.082699501358059 1.667818725183932 0  1.503819781540653 0.5468420196858188 0  2.015409142866072 2.175941657590429 0  1.752057611265444 0.869642097111018 0  0.612251684107783 2.356045720700959 0  1.902817102342857 0.6607642211999982 0  2.159616561739693 0.7867739969338844 0  0.5120038350106624 2.197302352398502 0  1.888200216011548 1.919501662489862 0  1.495909909726654 2.16028358757309 0  0.489139876703609 1.443203008943564 0  0.8819175670410521 0.3301172743913011 0  1.882591144370812 0.8155965192707721 0  1.133979796994841 1.172526771862882 0  2.206217447916667 2.084147135416667 0  2.20361328125 2.36279296875 0  1.395746985657004 1.556054166359645 0  1.704383111516207 1.734750450338683 0  0.9575737847222222 2.36274223823052 0  1.035150984253136 0.1302833343179028 0  1.383966125325753 0.7651479963479179 0  1.64003252158672 0.6824316405528895 0  2.22550785055421 1.487078576356817 0  1.760964431499756 1.48495222505201 0  1.276460980673788 2.004207003584658 0  0.1341477688427096 1.828777507920502 0  1.542261434180652 1.155296658359034 0  1.334627911613854 0.9696897472490321 0  1.30794231473696 1.119420615785191 0  0.7028260459857245 0.4438906910721139 0  1.625757433094055 1.84268057552138 0  0.9818707849053143 1.165603626132254 0  2.0086489901463 1.243134585689553 0  1.934584460420609 2.374094051915812 0  1.798434376789567 2.38671361912528 0  1.206314791201715 1.382064292497919 0  0.6333752893366955 0.7023738550008095 0  0.7796219811205605 1.42573253164258 0  1.564399711917382 1.026040828857629 0  0.3385416666666666 0.4889012896825397 0  0.1041666666666667 0.390625 0  0.989112246382566 1.543537365516289 0  2.025724425454636 0.9846960595520872 0  0.6602885475034063 2.086117390485779 0  1.607130551925032 1.267198646640915 0  0.1317864544877056 0.8896173683400176 0  1.755387840017567 2.230364320056445 0  1.301540702984401 0.1216289692748247 0  1.433170657577442 0.3331052752740999 0  1.500459610550388 0.113513924782439 0  0.6494291520606965 1.029586599619295 0  1.010146149868299 0.794897284196169 0  0.3700844198238017 2.235390157870766 0  0.3360891767780704 2.36656279435396 0  1.876856241037701 1.437150669863757 0  1.778674102957329 1.245979347269706 0  0.5472829890977179 0.1005517127039925 0  0.4669074189005698 0.3416784232954367 0  1.472765289289269 1.850899166481903 0  1.555853593327178 1.608452097912802 0  0.6708955559113426 1.646561631116984 0  0.8164699620322933 0.5924479455478063 0  0.3167738989468366 1.758696809749795 0  0.2788007305565096 1.605499483471246 0  0.7821720982350511 0.181524936294752 0  1.376812251214195 2.313340247908297 0  1.785652202614777 0.5962261755537186 0  1.761467296310972 0.4679567244718574 0  2.2265625 1.8359375 0  2.3828125 1.9140625 0  0.5279531607054191 2.071552361614785 0  2.397573269551114 0.234375 0  2.383578172599618 0.3589298466020009 0  0.1024267304488855 2.265625 0  0.1164218274003825 2.141070153397999 0  0.2696857594953064 2.135405441512016 0  2.164961300137334 0.1375322943529536 0  2.137757548369486 0.2724194778647587 0  2.238873711826398 0.3626419179496562 0  0.1001414910226386 0.234375 0  0.2176339285714286 0.3478422619047619 0  0.2503620791333544 0.1061694061057066 0  2.336445461915368 0.1250451055247424 0  0.2154004640409726 2.3918124
[...]
<PointData  Scalars="f_16-1"> 
<DataArray  type="Float64"  Name="f_16-1"  format="ascii">5.6549462529895665e-04  2.1142399464922849e-08  8.5277961526336951e-08  9.2434680963947584e-04  9.1512174396491307e-08  3.4730656487017102e-06  5.9916504287151344e-04  5.6549553140097894e-04  1.1679069766331537e-03  5.5550662517750481e-04  8.7455244488318315e-08  5.6555082180073614e-04  5.6549970049855252e-04  8.5553997285654796e-08  8.8210387590748314e-08  1.9920686952469723e-04  1.0078507773959603e-03  1.4730293069697370e-06  6.0228867809919862e-04  2.2679757719240218e-04  4.9346895460631614e-04  1.1465683643702347e-03  1.1140339705301540e-03  1.3046046530972835e-03  1.0014727259314588e-03  5.6852264556139320e-04  6.0730934534398602e-07  5.8409680559972060e-04  1.0274072501079416e-06  8.7273857036084373e-08  5.6553506741238691e-04  1.6594886720261667e-04  9.7623089559068952e-04  1.1009478947245088e-03  1.7043187745332180e-04  1.1805563094206498e-03  9.0975667088300369e-08  1.3880387356165480e-03  1.0335321496088032e-03  2.9695133799330896e-04  5.5495785867881845e-07  4.0864405681566140e-05  5.8337330273136250e-08  5.6331446033013902e-05  5.6563311799055706e-04  1.1349143177974660e-03  5.9492609112812140e-04  1.8466156322423214e-03  1.1664639079395430e-03  8.9772125880197511e-08  9.2831426616485736e-08  5.6549466772421017e-04  8.6622499564772747e-08  1.7298132006691778e-07  5.6533687961051664e-04  5.6550116766954008e-04  5.6791111522210545e-04  8.5070619170583465e-08  5.6549786977373934e-04  7.3810122252243593e-04  3.9225485325679592e-05  8.3966053671503770e-06  7.3330115684637953e-04  7.4971468640247420e-04  1.3486893657503134e-03  5.6628208339302326e-04  6.9387633227527214e-04  1.5981135237876561e-07  5.6616149771210626e-04  1.1257501287092220e-05  2.8792192578510809e-04  8.4940148259725795e-06  5.6552444304951166e-04  3.0877899781413566e-03  1.5062031559944971e-05  7.2826563021902212e-04  5.1177597778988531e-04  9.6685628179176049e-04  1.1763732735630629e-03  9.2651367267349600e-08  2.5121980957895271e-04  1.0857800050113398e-05  1.5121603895406203e-04  3.6033619554129027e-05  1.0376970798928879e-07  8.5863447763235699e-08  8.6116511838888993e-08  5.6766986400582265e-04  5.6549939881980846e-04  5.6549746935939573e-04  8.7355777356335859e-08  9.9105752114061696e-08  7.4596623060238368e-04  1.9482581317363286e-06  5.9067676699005550e-04  8.3547565551515476e-04  5.6565705243039955e-04  2.8911600622482906e-05  6.9005380665051639e-04  5.6551376240931734e-04  1.2894966834601220e-03  1.2257509454041983e-03  5.8916213015423923e-04  6.7906102118531133e-04  2.9767942105151222e-07  2.1153305929387371e-03  5.6450664604862550e-04  1.2930005250770566e-03  1.7622431216708951e-04  8.7045016752582474e-04  5.7991697458758878e-04  5.6545523173975670e-04  5.7958153937197093e-04  1.4982629134686447e-03  1.0461401321138657e-03  1.5919151126335046e-04  7.9862360016587537e-04  1.4151303023714222e-05  1.2082610112711136e-03  4.4452734564807126e-04  6.6097802347106710e-04  5.6749135539829439e-04  1.1155293732730733e-03  1.5086807676411222e-03  1.7953547468881199e-05  7.7442310585233850e-04  2.0692587372554815e-03  6.4759635300099807e-04  8.0991174969898363e-04  8.9852177709892301e-08  7.2659334571920905e-05  9.1137584774747982e-04  7.4009776472239337e-04  1.2179174669106484e-07  8.8267238851678945e-08  1.3321659105823933e-03  1.0531096581880867e-03  7.3369973291985283e-04  1.2670087236242257e-03  1.7306576889472745e-03  2.2089187227690717e-07  1.9426349438358720e-07  9.2318727835466431e-08  9.7795756888453427e-08  2.3138586826573884e-04  9.8350987966809713e-05  1.0539709045272875e-03  9.5890266947474623e-04  5.6551970906122196e-04  8.9064956383831957e-08  8.6319051578193632e-05  1.3502483867369652e-03  9.2955428539331876e-08  1.1576860812299971e-03  6.2000002695683542e-04  1.3964074732282406e-03  1.1431067529496311e-06  8.7954689712216661e-08  8.9000839422183352e-08  5.9230600907933906e-05  6.2450295513020917e-04  9.8755598398285850e-04  1.7646888537175508e-07  8.5942174280750088e-08  8.5210030879500550e-08  5.6549459557187257e-04  5.6549635958161196e-04  5.6635340766281520e-04  7.1380296408888797e-04  5.7165643483527513e-04  1.3331231502496731e-04  5.2371813116500792e-07  8.3936036209600719e-04  1.7534830269165762e-08  6.0613942297767716e-07  6.5525367477245900e-04  9.5532214757259454e-04  1.5333547411449991e-05  8.0147837765107534e-04  1.0242447856388870e-03  6.2297831661875655e-04  6.4963170819214470e-04  6.3494076950203215e-04  7.7837019777054713e-06  5.6599313254583215e-04  5.6549877176247099e-04  1.2306748108151328e-05  5.7628898489561699e-04  9.3657108234032342e-08  6.7486336706421312e-07  8.7441208478027288e-08  8.4983626107203450e-08  9.0562096161950031e-08  7.8328358695611898e-08  5.1417015446100236e-04  5.6550049104269167e-04  5.6550062818173225e-04  5.6549889205708900e-04  9.5929046495101086e-05  3.6523837331305141e-04  4.2848729199773157e-04  5.6553176497368333e-04  9.4956564211613000e-04  8.3282190918814792e-04  5.6692423009488055e-04  5.7319498826268161e-04  5.6562014867622256e-04  5.7156049464325066e-04  5.0374982928076449e-06  9.3966622979453900e-04  1.3022896061599330e-04  6.4326499179108226e-04  4.1199924991761263e-05  8.4696832052090354e-06  1.2484656169944321e-03  1.7920615352976536e-03  9.2834492765876981e-08  1.0597376839921525e-03  9.0513747836855147e-07  1.1414356986380594e-03  8.9261817652276325e-06  5.6563020871564320e-04  2.4806891350710242e-07  2.1637887046215697e-07  5.6560470672562056e-04  1.0614995475538228e-03  9.5050160602702324e-04  5.9698757343702973e-04  5.2389773265849731e-06  1.7464728197690573e-06  1.2880688312354154e-03  8.1527436286206901e-04  1.0955370361366958e-03  1.3209698148949232e-03  1.1011302635895608e-03  5.7194280858357497e-04  1.0052431280581613e-07  4.0901968243333411e-05  2.1304246072007243e-06  8.4100932741049963e-05  5.5006780360735254e-04  8.7288340493852994e-04  5.6550137620981682e-04  2.9923695810793845e-04  2.7641727935372575e-04  6.7434681671004588e-04  1.8533493949670705e-04  1.2702128721939049e-03  1.5521852797244226e-03  5.5749935147350477e-05  1.1282288411215836e-03  1.0221475591453727e-03  1.4215521413233762e-03  1.6985995040355785e-03  9.1899546393962351e-04  1.2426347908908665e-04  2.7253052242033524e-03  2.7678133942937249e-03  1.1042063135460604e-03  4.8211053641123774e-06  5.6732554551590484e-04  3.9755600307388140e-04  5.7850451626243805e-04  1.1217470846835553e-03  9.1828443597657394e-08  1.2251555281768516e-07  9.0163937031990061e-08  1.5430345443074060e-03  5.1581251343804462e-04  5.6550324498760049e-04  5.6549716411767560e-04  2.9006398930571078e-04  1.7190097441379258e-04  2.3356244102099911e-07  3.2155868914714327e-04  1.2707118091757257e-03  1.1592688391721519e-03  6.1303291757628883e-04  3.8959321041505960e-04  5.6564262834433716e-04  5.6577502074262574e-04  4.1307037015486711e-07  7.0979904197707719e-04  2.4509822975217878e-07  1.0858519611277213e-07  4.0457774448792268e-04  3.1646063383365788e-04  5.6585088777829251e-04  8.5467428977103166e-08  8.5509650468343750e-08  5.6549728822598213e-04  5.6549827156589358e-04  5.6550012181158515e-04  8.6681443775341335e-08  8.6806080622899720e-08  8.6307820855827124e-08  4.3816128980985809e-04  3.5268196759174484e-03  4.9106009305536845e-07  8.5839097879682401e-08  5.6549593255099341e-04  6.0041640653782499e-04  2.7191964809793062e-07  8.9113703630224205e-08  7.5292732027981712e-05  1.3568603631197476e-06  4.2854654787958131e-06  5.6550813048043813e-04  7.5626933857362265e-04  1.5397621305634445e-03  5.6549946766623138e-04  8.7872667551371721e-08  8.6432521022198735e-08  1.0000604900909701e-07  7.5201052463928092e-04  6.4551660681117049e-04  5.7908552621340945e-04  5.6664770441048967e-04  2.3399749178337061e-05  1.8186409053197423e-04  7.3688940673053566e-04  9.0404281640775985e-08  1.5039653770010705e-03  6.7844084979919595e-04  7.7787231299978373e-04  1.0957586879117315e-07  9.9294517458000335e-08  2.4837157146215143e-06  7.3228776277231360e-04  5.7273480485734872e-04  4.0676412961888417e-07  5.8246337125165265e-04  8.4123733060664904e-04  4.6600141713312233e-04  8.9504538444083238e-04  8.9154264795318870e-08  5.9407060161946869e-04  5.6644560694434575e-04  5.6553176317081211e-04  3.2518591998969651e-05  2.5222073310789893e-05  1.6524322955117881e-03  8.9379236300068798e-08  7.7846851168505761e-06  1.1895557923537990e-03  8.8561957655744690e-08  8.2583839062047129e-05  1.1693386361938949e-03  5.5705557167427973e-04  5.6594042269202084e-04  1.4376695403547997e-03  1.2183148597860816e-03  2.3685325588209487e-03  2.2267085168548393e-03  1.1808504601834276e-07  5.6550186552602091e-04  5.6560373327919011e-04  9.5732653757030015e-06  2.3135639614288208e-06  6.3732361165739972e-04  5.6549576726551713e-04  9.3425618943171582e-04  3.1139319575626122e-04  8.3141568022608762e-05  2.9471287445605425e-06  1.1456187729062942e-03  9.3862328001895205e-08  1.2105434411877178e-03  5.8701491069580096e-04  6.3175010486037563e-04  1.0465577453442321e-03  5.6550672643895165e-04  1.2986910775472624e-04  1.0230845635798859e-03  1.3188809616173102e-03  1.2976888572605854e-03  4.4700176476805990e-04  7.1837055341815654e-04  1.7711295060769598e-03  6.2142225538636933e-04  1.4242898924636919e-03  1.0348475618866826e-03  4.8826471094085470e-07  1.2055293765302021e-03  9.0028594902326516e-04  1.2445439623195455e-03  7.0161674894586373e-04  6.1491485232306959e-04  5.9979424587242821e-07  9.2627079584461783e-04  1.0098689844120536e-06  1.2880743000196494e-05  5.7077696769521297e-04  6.5504278782068401e-04  1.4826823390068117e-03  7.2659944228654037e-04  1.0432151078374420e-03  9.1520079206954154e-08  1.8090582631393373e-04  1.4193736333245374e-03  9.8158185822041968e-04  5.6685272696898226e-04  1.7564097341951983e-05  4.0925149563144430e-06  1.3891231726606962e-03  2.3822719904075866e-05  8.2283138163757636e-04  6.1775625232740291e-04  1.9283615711600235e-03  8.5541585488045723e-08  3.6253361072882626e-05  9.0035808821263940e-05  2.5903306689928319e-04  8.6795251232388493e-08  5.6951795988763397e-04  5.7605954194679080e-04  2.9098905276916210e-04  2.2773634608860725e-03  1.1128747337897039e-03  5.6550997816724475e-04  1.3965541697544485e-03  1.1303047356030001e-03  9.4044021958877031e-04  9.5484645846752628e-04  6.8285606900102670e-04  6.3738902467023431e-04  5.7145039113333572e-04  8.6389866451599994e-04  1.1989586548396469e-03  1.1123214828382786e-03  9.1754361825466669e-08  1.4209719451405841e-03  5.6745825551381471e-04  5.6644413382345800e-04  8.7324834751615350e-08  1.0229138262725068e-07  5.7274623151950231e-04  9.0768883970315849e-08  1.0736130226942939e-03  1.1688418468811721e-07  8.8277962666374504e-08  5.6550214429731407e-04  9.9302774648589442e-04  8.8741356215258211e-08  1.0689795895236220e-03  1.8118860608663323e-03  1.1499527803324652e-03  1.1443751889299036e-05  7.8205459748783713e-07  8.6286056305448300e-08  1.1910339803898177e-03  5.6694876188195418e-04  8.1003138066280576e-04  4.7361597470535233e-04  2.8071128699037224e-07  5.7074386513091262e-04  2.5907428794421804e-04  1.8649470579461640e-03  1.4737048969502039e-03  5.7542810296281461e-04  1.3147363693821643e-03  1.1784606509969438e-06  5.7050240082675348e-04  8.6997371655344088e-08  8.7175101277188508e-08  5.9074251022361434e-04  5.7476328717697149e-04  1.0270694900930265e-03  2.5346228819852047e-07  1.2489337188956342e-03  8.7783496624721592e-08  3.7991454322293805e-05  1.2940971354939652e-04  1.7529112300725796e-07  2.3508155067630713e-07  1.0935690772238465e-07  1.1886798722966000e-03  1.0123681745345464e-03  1.3670840833884461e-03  1.2609095881142342e-06  5.6549538425742227e-04  1.1728677121229025e-03  1.0946718585165657e-03  5.6558333281534628e-04  8.6569609379455556e-04  7.9512437599795469e-04  2.6870207844949338e-04  1.4159661699120405e-07  1.2392142224923281e-03  5.6592429569558194e-04  6.9899355043617252e-04  2.2658437806534066e-07  3.1270975662528076e-04  8.1995244292099560e-05  1.1530866943621843e-07  5.6350586618333879e-05  7.4808255791225121e-05  1.1928424866927180e-03  5.6550140768047211e-04  9.3390991098339410e-04  1.2436882348650008e-07  1.5928179648103498e-04  9.6179179859868244e-04  7.6233221703429231e-08  8.5057154526844310e-08  8.5415101715953616e-08  5.7588147281380220e-04  9.9995355410718025e-08  5.6564600633996485e-04  5.6551758135693273e-04  1.4668910698977199e-05  1.1453648862981025e-03  3.3370855718738289e-06  8.3678828011879739e-04  6.0658952507261684e-05  9.1942665945403271e-04  3.1400697896615272e-05  5.6550016726060839e-04  5.6590479690390907e-04  5.6549921110941382e-04  5.6551537982533085e-04  9.3096722082082522e-08  1.6464671505048929e-06  8.5032429450130763e-04  1.2735893605967668e-07  5.6767836189851035e-04  6.0016710280865826e-04  7.4455590636959119e-05  3.0125836938492333e-05  5.9488531049850524e-04  5.6549892848752016e-04  4.7593466630667397e-04  9.9158368588626745e-08  9.2057528083877250e-08  8.7518212595350267e-08  1.4925071891279077e-06  3.3632237980793151e-07  3.7794044129010979e-06  2.0585539374886951e-04  3.6197052261221076e-04  1.3479211391651943e-04  8.5258918725148549e-08  6.3716357034074203e-04  8.8171715348305588e-08  6.0830051293844290e-04  6.8704070306565147e-04  6.0450863322452154e-05  1.0200646477488680e-03  9.2464536894091285e-04  2.6116751032880219e-04  5.8735524153086108e-04  8.0925123383446143e-04  1.4296477549996254e-04  1.7541350378342841e-04  8.5876320397684421e-08  5.6549811373346102e-04  7.1089320650982236e-04  1.4725635625824705e-05  6.2617391776371740e-04  5.8141544831088652e-04  8.6255120871488124e-08  9.9320171715148314e-04  3.0481793354180942e-03  1.1933166042834109e-03  8.4591174096310476e-04  8.5466550173415705e-08  6.9878085053655880e-04  5.6519742222752847e-04  8.7628178727149336e-08  5.6549670646327879e-04  9.0682357510671918e-08  5.6688951227172668e-07  9.0790702067548325e-04  8.0051555505506453e-04  1.2184474059444678e-03  1.1103802529169482e-03  4.5856225735121996e-04  7.7340277602399438e-04  5.9795875750036202e-04  1.2649873532599681e-03  1.1769485584264357e-05  1.6165530515380501e-07  6.3482072524047675e-04  1.2555307578906037e-03  1.4412762986397524e-06  7.1992034317640431e-06  2.7019350574315981e-04  1.2565029961445439e-03  6.4017017721503249e-04  7.9809927833550886e-04  1.2280382040322330e-03  5.8645825143670337e-04  5.3814734483489468e-04  7.3076239079496990e-06  4.6489514023802589e-05  5.4234537636846660e-06  7.6500171509881780e-05  5.6668350834390170e-04  5.4499772928629142e-05  1.2723073317298143e-07  3.8885360389381963e-06  5.3698077367285110e-04  6.4423673877047022e-05  9.6966044537952411e-07  3.0544094025715516e-07  1.3966665496902555e-03  1.2790198652050876e-03  3.9782403866444135e-04  5.7032581256180115e-04  5.5473967075375446e-03  1.0517311356316454e-03  4.8290058489704388e-06  9.2610520313004721e-08  5.5706848068780984e-04  8.6755643920903685e-08  6.5621211071038128e-04  1.0150491940338830e-03  1.1244447342535801e-03  3.8939979379500338e-04  6.3828971986272694e-04  2.6650909764340624e-05  6.8283366201265627e-04  6.0910710151646983e-04  2.0801648914015966e-08  2.4812321343893759e-08  8.3468560541850965e-04  9.1020366534184632e-08  9.0298580390429071e-04  3.4093841510593921e-05  5.6549833217261710e-04  8.5222989945713352e-08  1.0589591058320484e-03  1.5037276067571127e-03  2.5683917930096372e-05  2.9066706211681488e-04  7.9855256817523658e-04  2.0996665805472018e-06  1.0672225064426320e-03  2.1023949688562327e-07  8.6460128095347292e-08  8.7528451062888063e-08  1.6751418205670713e-07  7.6633658848514956e-06  2.5939598149352745e-03  5.6563578921266081e-04  5.7624218173176747e-04  5.7801752092516737e-04  6.8575252534728486e-04  1.1177821935515989e-03  8.8963452980761515e-08  1.0081434821025239e-03  1.5403621212519163e-03  1.2380875140855256e-03  2.2874512443928169e-04  1.5250228477773913e-05  4.9820311516301247e-06  5.6549873028349654e-04  5.6558052171746967e-04  6.7083488237339368e-04  5.0559154720560943e-05  9.1929195430979014e-08  1.1081098020563247e-03  5.6659686590384650e-04  1.1363642916841416e-03  5.6549548607508562e-04  5.6549467711874838e-04  6.1986028718579551e-04  5.6550099508164526e-04  5.6567790250355745e-04  6.3775566093098387e-05  8.8552483151665448e-08  8.9397211205121033e-08  1.5425653598608202e-06  6.3877239277756432e-06  2.3204369493263771e-05  5.6539972999243766e-04  5.6548399706986621e-04  5.6549976016169662e-04  5.8595508267805243e-04  5.6234760149620022e-04  9.2895760877592298e-08  8.7835243350225783e-08  5.6549934253842082e-04  5.6549452904976986e-04  3.4817127955004810e-08  5.6549713877005153e-04  8.5130930723839212e-08  8.2416986964658128e-08  9.0205585119046958e-08  4.1468559644240933e-06  3.8732549577017041e-04  9.4563688281215999e-04  6.7135249419532795e-04  8.6848982589217600e-04  9.8396014298888666e-04  5.6550113715353228e-04  6.8849990156880645e-04  5.4594012587095935e-04  1.3790795971067578e-04  4.5770857624736751e-04  8.5014193867511287e-08  6.3138407762563881e-07  6.8997901057637492e-04  1.0062738395214689e-03  5.6639101076286745e-04  3.4545000942750746e-06  6.1184300596737421e-04  1.0226849809882321e-03  2.1164756506144525e-03  1.7032121228776364e-03  2.8171263726865960e-04  1.1834568855730424e-07  1.6514959929559321e-03  6.1501261024317984e-04  5.6553375194336511e-04  1.2665468027908003e-03  2.6426636312755353e-05  5.9788596460761192e-04  5.6556988074975007e-04  5.6550365529626438e-04  5.6554767703178590e-04  5.6584356881181071e-04  7.7698613057110440e-04  1.6914866316000980e-03  3.9056628977906952e-06  1.2778629565996119e-03  6.6502087645129565e-04  1.9984768287347645e-05  1.9456813553111196e-03  1.9720784381036313e-05  5.6571229308487452e-04  6.5549898296878462e-04  1.4383168281828474e-03  8.2235675005168992e-04  1.2474776975729377e-03  6.0306614862143425e-04  6.9134950991718514e-07  1.6291016465451726e-03  1.6174600452365906e-03  8.9330203511605453e-08  1.1733735269235071e-06  1.6188454029607889e-03  4.7343736214162269e-07  1.2655288922635471e-07  9.6913078595866156e-04  8.9043588090655988e-05  4.3670675283435321e-04  2.7911638462795952e-04  4.9125879815418896e-04  1.5946902630925051e-04  5.8220263804861696e-04  5.9076356481142236e-04  1.0637886165480765e-03  1.7352536466081877e-04  1.0248750015516117e-04  1.3926554446480754e-04  7.0569521681811378e-05  5.6718451126821579e-04  5.6551058538111855e-04  7.6663779404690085e-04  5.6839285017474704e-04  7.8130318811164506e-05  5.6583187354537334e-04  5.6554070194516639e-04  7.3035512966343398e-04  1.6246564522925122e-04  4.2955831955449644e-07  1.5699677522005304e-07  5.6550487902659065e-04  7.4372439342674905e-04  5.6682186006124955e-04  5.7104100082446463e-04  5.6673594402147911e-04  7.5857783303937367e-04  8.6697369066513144e-08  6.0863069919093907e-04  6.3790436967569382e-04  5.6573450070135161e-04  5.6553029133319028e-04  5.6552352957981377e-04  9.0835214171632636e-04  8.1071810549239464e-04  9.5628801390126602e-08  1.1426719239736881e-04  1.2104900605514617e-07  4.5198071461519959e-05  9.0867916034261377e-04  7.8755709752338881e-04  5.7008108864267139e-04  5.2714733255720470e-04  8.7516690968885839e-08  1.0058055909040915e-03  9.3465080065762403e-08  1.0274008138616965e-03  1.7255215563603626e-03  8.8089662266836192e-08  1.0649762178378010e-03  1.1834362244778167e-03  3.5840820523734464e-04  1.6534393327935845e-07  5.6549553106414563e-04  5.7934381932094785e-04  1.3607419437327438e-03  7.8221024099264281e-04  6.1037504580339636e-04  1.2352015700238049e-03  1.2328672489946557e-03  5.8127379653740016e-04  8.5827922366530189e-08  3.0944952182483204e-06  1.2346011051377001e-03  6.3403299366326937e-04  6.2171118895560013e-04  5.6575850243618182e-04  5.6554979674895657e-04  1.0160203957220310e-07  5.6549597059708020e-04  2.2025114069290917e-07  8.6085576127797106e-08  1.1386465849841140e-03  5.6561041846191565e-04  8.9794056824125346e-08  1.0167234809243340e-03  8.7061440051238104e-08  1.1344884343804007e-03  5.6549812123981495e-04  5.6549903061004652e-04  5.6550445358907807e-04  5.6550095239010876e-04  2.8765922610767