<?xml version="1.0"?>
<VTKFile type="UnstructuredGrid"  version="0.1"  >
<UnstructuredGrid>
<Piece  NumberOfPoints="6486" NumberOfCells="12696">
<Points>
<DataArray  type="Float64"  NumberOfComponents="3"  format="ascii">0 2.5 0  0 0 0  2.5 0 0  2.5 2.5 0  1.25 0 0  2.5 1.25 0  1.25 2.5 0  0 1.25 0  1.25 1.25 0  0 0.625 0  0.625 0 0  0.625 2.5 0  0 1.875 0  2.5 0.625 0  1.875 0 0  2.5 1.875 0  1.875 2.5 0  1.770833333333333 0.7291666666666666 0  0.7291666666666666 1.770833333333333 0  0.9375 0.625 0  1.875 1.5625 0  0.642361111111111 1.163194444444444 0  1.341594827586207 1.883979885057471 0  0.46875 0.46875 0  2.03125 2.03125 0  0.3626104797979798 1.513178661616162 0  1.381740196078431 0.4564950980392157 0  0.9375 2.172619047619047 0  2.172619047619047 0.9375 0  2.096354166666667 0.4036458333333332 0  0.4036458333333333 2.096354166666667 0  1.684027777777778 1.163194444444444 0  0.3418803418803419 0.8693910256410255 0  1.642742622813391 2.162164207604464 0  1.275619849389031 0.8465650753054845 0  0.9136284722222221 1.434461805555556 0  1.732437511238546 0.3406962303960658 0  0.9714402568595876 1.029779313093998 0  1.52281746031746 1.485615079365079 0  2.1875 1.71875 0  1.06819722569879 0.2997236128493951 0  2.136114211309524 1.303478422619048 0  0.3125 0 0  0 0.3125 0  2.5 2.1875 0  2.1875 2.5 0  0.3200021620376328 1.192323085056694 0  0.6738456129277992 0.8304377375553881 0  1.757891808928991 1.861952730357003 0  1.5625 0 0  0.9375 0 0  0.3125 2.5 0  2.1875 0 0  2.5 0.9375 0  0 0.9375 0  0 1.5625 0  0.9375 2.5 0  2.5 0.3125 0  0 2.1875 0  1.5625 2.5 0  2.5 1.5625 0  0.7448220909826522 0.3003573636608841 0  1.027298850574712 1.871151477832512 0  1.331260495098891 2.197262878816185 0  1.207917681892289 1.582765010956622 0  0.4339993447432606 1.801186844743261 0  0.6337298768939392 1.443093039772727 0  2.049851190476191 0.6826636904761904 0  0.6584821428571428 2.219122023809524 0  1.89575676467455 0.9798457973793544 0  1.437570562095628 1.059380588255917 0  1.502090052505845 0.6987070896496241 0  0.2040860661083546 1.705323965099331 0  0.2083333333333333 0.46875 0  0.5070952039991439 0.2211150679997147 0  0.6916302856529919 0.5813591430410241 0  2.265625 1.953125 0  2.2265625 2.2265625 0  1.886424081252096 2.243391360417365 0  1.40625 0.202164758520858 0  0.2269345238095238 0.2269345238095238 0  1.152730869673694 0.5225850378741401 0  1.885631899587912 1.312095130148776 0  1.614808884009367 0.9049784971014416 0  1.890095442220658 0.5126535558463003 0  2.323168682795699 0.46875 0  2.268811725689575 0.2304742875213018 0  0.6002389442105756 1.967426444210576 0  0.1768313172043011 2.03125 0  0.2311882743104251 2.269525712478698 0  2.03125 0.176831317204301 0  2.280262553344767 0.6954945504579233 0  1.979219539285994 1.809922269642997 0  2.336309523809524 1.09375 0  1.09375 2.336309523809524 0  0.9314042474388009 1.662973812215543 0  0.1634067999087722 1.40625 0  2.337090640094896 1.40625 0  1.141616997467638 2.069311773587991 0  0.46875 2.338939559681489 0  1.542440307908715 1.734944797244472 0  1.556713687786879 1.956977865354753 0  0.8264238995344066 1.975424467820646 0  1.466326331454725 1.275271369760862 0  1.655675324257095 0.5444159974393489 0  0.3385416666666666 0.6479255698005697 0  0 0.78125 0  0.5236073939200119 0.984090461540625 0  2.091665741047893 1.519793517904215 0  1.71875 2.5 0  0.5356538886262603 1.623137930505009 0  0 1.09375 0  0.1932884281517095 1.015625 0  0.8569313582417669 1.2198915584249 0  0.8876981284879677 0.8329884081524883 0  1.115618488474214 0.7219586973356271 0  1.186950366204949 1.043465130075318 0  2.057459118787237 1.110823087309335 0  1.830651283878689 2.049810069572418 0  1.689107969301489 1.367247437031697 0  0.4921048768039656 1.298643370653124 0  0.8213975694444444 2.336309523809524 0  2.03125 2.5 0  1.049729400480002 1.283723261332814 0  1.308101375801673 0.6489479469700392 0  2.5 2.34375 0  0.4968777175037714 0.7562964879736076 0  1.40625 2.5 0  1.501347663534097 2.307027627307738 0  1.602813712048603 0.1926218191360736 0  0.8393082906308107 0.463778306132633 0  1.682663349152719 1.598471865581041 0  0.7774174680851571 1.560004941327907 0  1.554204170364662 0.3898593897892066 0  1.842184459051087 0.186443880058197 0  1.358107417651776 1.696381759610015 0  1.18859291992392 1.77598670078022 0  0.1875331222687418 0.7609599743339348 0  1.339536743965101 1.422080365801479 0  0.7788179348750389 0.9955343414928611 0  0.9062978492805438 0.1919636509126373 0  1.256007360640958 0.3160320559396114 0  1.09375 0 0  1.174986727221844 0.1594990293443933 0  2.34375 1.796875 0  2.318026474511116 1.589177949022232 0  2.34375 2.5 0  1.672742954892153 2.332882724550692 0  0.2683637361947215 1.874801596909639 0  2.174770749820102 0.5581009131310781 0  1.443279522965991 0.8870068372898454 0  0.3385416666666667 0.3571428571428572 0  0.78125 0 0  2.060421048269335 2.314363248763811 0  1.088078737088509 0.8967352118723447 0  1.087825368444708 1.454931510884769 0  2.018308232129541 0.8548495425854904 0  1.943987311736842 0.3246298523011434 0  1.71875 0 0  1.85337849796276 1.144833312386208 0  2.3486328125 2.1044921875 0  1.407588788651747 2.042968789119587 0  2.336309523809524 0.865366648092144 0  2.34375 0 0  2.5 0.15625 0  0.15625 2.5 0  0 2.34375 0  0.1638044648294291 1.242263417405867 0  0.356216654757926 1.032569427322806 0  0.3188217956111817 1.355736727000647 0  0.5924956460852111 0.36112522004736 0  0.6594216488965849 0.1603472116132387 0  1.841804599497131 1.72214349266521 0  0.15625 0 0  0 0.15625 0  2.115898634821499 1.894570904464496 0  0.7821877980253907 0.7129993435924866 0  1.003820447087786 0.4516053462784233 0  0.477562948779147 1.138333049293613 0  0.719493678605015 1.305655360135975 0  0.9772457618587566 2.020350128938537 0  0.8764738248887107 1.826219722709673 0  1.254787875123819 2.339010653832026 0  2.343597354852534 1.249982759769001 0  0.78125 2.5 0  0.46875 2.5 0  2.5 1.40625 0  1.09375 2.5 0  2.5 0.78125 0  2.5 1.09375 0  2.03125 0 0  2.5 0.46875 0  1.40625 0 0  0.46875 0 0  0 0.46875 0  0 1.40625 0  0 1.71875 0  0 2.03125 0  2.5 1.71875 0  2.5 2.03125 0  2.005424054645407 1.653223486966518 0  0.1538730573856537 1.559850281736677 0  2.33984375 2.33984375 0  1.166539506212474 1.922878979538754 0  0.3914885633949916 1.65887232812171 0  0.5795503163042564 1.766243562569382 0  0.399533125920212 1.946786875081388 0  0.7866324979014098 2.127719094551316 0  0.3654683023546834 0.1495701132219454 0  0.1527388747131078 0.6116379440619215 0  2.013737577140188 1.391056634712135 0  1.17635437372994 2.213329084238133 0  1.737118141866284 1.010577140843115 0  2.200707118087222 1.164723314085963 0  1.697018908736685 1.993548551451517 0  0.5387621649009668 0.6070503962352419 0  2.032805785855952 0.5330427622570983 0  1.082699501358059 1.667818725183932 0  1.503819781540653 0.5468420196858188 0  2.015409142866072 2.175941657590429 0  1.752057611265444 0.869642097111018 0  0.612251684107783 2.356045720700959 0  1.902817102342857 0.6607642211999982 0  2.159616561739693 0.7867739969338844 0  0.5120038350106624 2.197302352398502 0  1.888200216011548 1.919501662489862 0  1.495909909726654 2.16028358757309 0  0.489139876703609 1.443203008943564 0  0.8819175670410521 0.3301172743913011 0  1.882591144370812 0.8155965192707721 0  1.133979796994841 1.172526771862882 0  2.206217447916667 2.084147135416667 0  2.20361328125 2.36279296875 0  1.395746985657004 1.556054166359645 0  1.704383111516207 1.734750450338683 0  0.9575737847222222 2.36274223823052 0  1.035150984253136 0.1302833343179028 0  1.383966125325753 0.7651479963479179 0  1.64003252158672 0.6824316405528895 0  2.22550785055421 1.487078576356817 0  1.760964431499756 1.48495222505201 0  1.276460980673788 2.004207003584658 0  0.1341477688427096 1.828777507920502 0  1.542261434180652 1.155296658359034 0  1.334627911613854 0.9696897472490321 0  1.30794231473696 1.119420615785191 0  0.7028260459857245 0.4438906910721139 0  1.625757433094055 1.84268057552138 0  0.9818707849053143 1.165603626132254 0  2.0086489901463 1.243134585689553 0  1.934584460420609 2.374094051915812 0  1.798434376789567 2.38671361912528 0  1.206314791201715 1.382064292497919 0  0.6333752893366955 0.7023738550008095 0  0.7796219811205605 1.42573253164258 0  1.564399711917382 1.026040828857629 0  0.3385416666666666 0.4889012896825397 0  0.1041666666666667 0.390625 0  0.989112246382566 1.543537365516289 0  2.025724425454636 0.9846960595520872 0  0.6602885475034063 2.086117390485779 0  1.607130551925032 1.267198646640915 0  0.1317864544877056 0.8896173683400176 0  1.755387840017567 2.230364320056445 0  1.301540702984401 0.1216289692748247 0  1.433170657577442 0.3331052752740999 0  1.500459610550388 0.113513924782439 0  0.6494291520606965 1.029586599619295 0  1.010146149868299 0.794897284196169 0  0.3700844198238017 2.235390157870766 0  0.3360891767780704 2.36656279435396 0  1.876856241037701 1.437150669863757 0  1.778674102957329 1.245979347269706 0  0.5472829890977179 0.1005517127039925 0  0.4669074189005698 0.3416784232954367 0  1.472765289289269 1.850899166481903 0  1.555853593327178 1.608452097912802 0  0.6708955559113426 1.646561631116984 0  0.8164699620322933 0.5924479455478063 0  0.3167738989468366 1.758696809749795 0  0.2788007305565096 1.605499483471246 0  0.7821720982350511 0.181524936294752 0  1.376812251214195 2.313340247908297 0  1.785652202614777 0.5962261755537186 0  1.761467296310972 0.4679567244718574 0  2.2265625 1.8359375 0  2.3828125 1.9140625 0  0.5279531607054191 2.071552361614785 0  2.397573269551114 0.234375 0  2.383578172599618 0.3589298466020009 0  0.1024267304488855 2.265625 0  0.1164218274003825 2.141070153397999 0  0.2696857594953064 2.135405441512016 0  2.164961300137334 0.1375322943529536 0  2.137757548369486 0.2724194778647587 0  2.238873711826398 0.3626419179496562 0  0.1001414910226386 0.234375 0  0.2176339285714286 0.3478422619047619 0  0.2503620791333544 0.1061694061057066 0  2.336445461915368 0.1250451055247424 0  0.2154004640409726 2.3918124
[...]
<PointData  Scalars="f_16-1"> 
<DataArray  type="Float64"  Name="f_16-1"  format="ascii">5.1744963648383718e-17  -6.9396598047722564e-10  -1.2482189983982782e-24  9.9499704594901415e-24  1.4073955350693383e-11  5.2227273645367680e-19  1.1270779622009632e-16  9.8126039684930501e-06  6.5316346761661011e-07  4.8404399148815549e-04  2.5032733888015559e-08  7.3223232762047841e-17  1.9514279833286082e-10  8.7863137320291395e-22  -3.2468658628526294e-19  3.2627004405135155e-20  3.2577257872950748e-19  1.3195939941988425e-11  6.0432107533926979e-09  6.4655466632666301e-05  1.2382028413273428e-12  8.4426318110425027e-05  4.7485728249423672e-11  1.2706066618372966e-03  1.5378112264081939e-16  2.5604292123013241e-07  3.6011078453464555e-09  7.1931194338919386e-13  1.4964938856561363e-15  5.1258095753571452e-18  1.2211785307498130e-12  5.7703475786293797e-10  5.6414302700589310e-04  7.0831277528647586e-15  1.4143922470015201e-06  1.6537087380498010e-06  5.4341746346611068e-14  5.8518858738326899e-05  1.4952488236025332e-09  2.6693217724689337e-16  7.5789032453191348e-08  1.1790763614389414e-14  3.2683888087048677e-08  5.5358304707006372e-05  1.0977240187962096e-21  2.0277553080095922e-21  2.5336390537675816e-05  8.4965344637416118e-04  2.2818119079533991e-13  1.2407174141588521e-14  1.8520858835296463e-09  3.3836124002811881e-17  -2.4293053905470687e-21  6.4324762078779523e-20  1.3990334160572264e-04  1.1091584549191315e-07  1.1799414837888065e-16  2.0031758981930095e-25  1.3474885712059735e-13  1.1223460868713312e-17  3.4701741516773000e-19  6.4646273386570898e-06  4.6449542189492196e-10  6.8059246223683352e-14  2.2111855185932311e-08  1.2714193299578231e-09  2.1943834103113336e-06  2.8486742670502237e-15  8.8482829979219195e-14  3.4699876611700738e-12  1.0607137535988817e-07  7.0998322964420681e-09  7.4328882642072872e-09  3.0757703190141222e-03  1.4702554443861912e-05  5.4638537721575519e-04  3.2323443851971780e-18  1.4290752496152212e-19  3.7395349408965873e-17  6.1997500167892660e-12  2.5102416344203017e-04  8.0911219660913506e-07  4.1818000145990970e-12  2.3432538336476664e-09  2.0424141876007741e-14  8.6156244649296448e-21  -1.2600062493995404e-22  4.9388474101782004e-11  5.8397813192006795e-12  1.2681173824955895e-14  1.2526171684837131e-20  2.9077247797073448e-18  8.6910734800078803e-15  2.9139821467782678e-17  9.1064909062751006e-15  3.5191935481178338e-08  1.1933769404053600e-06  4.2148939671134918e-17  4.0362717661954560e-12  3.2812822736167828e-15  4.5092868656880963e-11  9.3203786781876237e-13  7.7351411505830111e-11  2.3214242446433079e-08  2.3668539401418541e-11  1.9861219073050709e-03  3.0660982990557873e-04  4.1611953238484981e-04  1.1085682817602359e-14  2.5419300912527432e-18  6.2805011900953317e-08  4.4300435925984166e-05  9.3044062665754149e-05  2.8496144668923122e-05  2.0519111789207508e-04  1.0295941417497171e-05  4.7371708487161819e-06  7.4034135693669067e-14  3.0672108888481947e-15  2.0955892155710350e-10  1.2863603110207809e-05  7.3971238170953754e-15  3.1100144522742522e-20  3.1951549965394127e-06  2.1307179127033475e-07  1.0954633791646347e-22  1.5791664083488134e-03  4.0060910795900737e-17  1.4281217571203482e-15  4.6193248310178927e-14  4.0523915628064001e-05  2.8549624924692812e-11  2.8413355458249626e-07  1.8849499276825592e-11  3.1997990442186792e-17  9.2002478178577012e-10  1.1712130286442822e-09  5.1852637004859436e-04  4.0431372019097356e-08  2.7096324201816895e-04  5.3088752231017278e-08  3.1067648991402273e-09  2.0289534377664287e-10  3.5859818678079042e-10  2.9709424890332197e-18  2.7817421110431151e-17  1.4063088487860642e-22  1.3802443203016289e-16  2.2788266384893005e-10  6.9968596336234838e-18  7.5104185123303200e-08  1.3469649594929274e-03  9.2651353400355010e-09  5.2951275936663740e-19  2.3382841698687437e-05  3.6754707740184367e-07  5.7021906638441176e-14  8.2153565836474245e-17  2.1173488950415943e-16  1.2273182713205393e-11  7.3970311205227970e-20  9.4672281675283243e-13  4.4387242322186771e-18  -5.9969442317296036e-23  -7.3392810718543202e-25  4.6249777427516295e-17  1.8792347026332172e-15  9.4546061095348709e-06  1.6068031387440172e-04  2.7945857998556665e-06  1.2347694208646743e-04  3.9068625745918211e-07  3.4487968251590866e-13  -4.1369743316879477e-09  5.3729132623680850e-07  1.6075851496573267e-16  4.2671216559029483e-04  3.7588318839090206e-06  9.0981373028626030e-05  1.4790547199098913e-05  2.5041127761985141e-11  1.8863578040631201e-09  4.5567758662497535e-15  3.5076407251204562e-17  8.0592110629016962e-17  4.6746659597488505e-17  6.2811325201199517e-19  1.5537317912094169e-16  9.4805005965741344e-21  2.7845031923729241e-19  -9.6985723761974133e-20  1.9473950463229852e-23  4.0950101424144309e-13  4.2359422554397011e-08  5.0424703536488180e-04  1.3959695354782092e-06  5.8409301746214198e-09  7.0071615974314022e-12  1.3016113830426170e-19  6.6499008260917400e-21  3.0230791521398534e-14  1.0452355478672800e-07  2.5711748980594725e-21  7.9323262494826008e-11  2.1781819396836062e-08  3.7841148508438776e-09  4.7247405922173698e-11  1.6907301469000709e-12  4.9720538752840210e-06  8.7504044903468367e-04  1.6015606337132446e-13  1.5082643191028863e-13  1.8062336077758123e-10  1.5738296542222311e-15  7.6313619637566588e-14  1.5739443895109249e-03  4.2571025965952627e-16  1.6041827614787958e-08  8.7136253334237751e-10  1.5510503112580445e-17  8.4862400951430967e-11  2.1335928208098347e-15  1.5692446532554124e-13  3.8709096306134698e-16  1.2922517237720171e-13  9.8604524605840717e-15  3.6254817667998523e-14  1.4107312957985215e-06  2.5305145003408730e-06  1.3472323675629672e-12  4.4726113341859195e-06  1.8610092124047629e-18  1.4804260739896172e-20  3.6175549061305400e-09  3.1159338628414594e-12  4.2960483395198121e-15  1.8235920600885898e-09  1.3331581356024857e-07  2.0601539032007549e-10  5.9329888969769026e-16  2.3486005174360221e-11  7.5496984103249067e-12  7.0901981464084521e-10  1.0452360825069246e-08  6.1459793948272561e-07  6.1883005818270997e-07  1.4718450083247146e-04  2.6752019177509733e-12  1.9771530268108609e-05  3.2276088191674971e-13  1.4818153795212373e-18  8.0950236996912979e-18  2.9106373535877966e-07  1.1803774443271081e-03  2.5360808613232143e-06  9.5353396934406097e-09  2.6996697901649266e-03  2.7644869381308040e-03  2.1073032512955636e-07  1.0852220852239935e-13  2.7218001156318024e-12  2.0364055628017741e-09  2.0473722523002428e-04  4.2207622044657242e-16  1.1921058173326231e-11  1.1579804597758094e-10  1.0090191189368476e-13  2.9063356482892576e-04  5.2704091808879552e-05  4.8533561800565574e-14  1.0194454804864929e-15  2.7692746167016880e-12  5.8431093702987020e-11  1.7477864837734833e-07  3.1745985590314439e-04  1.7478249124383211e-11  1.8495213933084678e-10  5.7339489432537840e-08  1.9612223437339134e-04  2.6095466796193576e-09  4.9050353317410366e-08  2.2400318411852914e-07  3.0955595334733280e-15  1.4913561538153346e-12  3.1687423598965374e-13  3.6667264404156212e-17  3.3180972495524446e-19  3.2226858712894612e-12  -4.0862543004948580e-24  8.7854505436945054e-23  2.0842548318901115e-14  4.8941617348156030e-13  6.0164214303614523e-13  -3.2297789635751113e-21  4.6139956436522028e-20  1.3845576503801844e-20  4.3796536286515504e-04  3.5248161936723837e-03  4.6299336486168642e-07  -4.0856055981438117e-23  5.9803154613298914e-16  1.9382729786812993e-13  2.4172512952765673e-07  3.5994052960300156e-15  9.8472636486293201e-06  1.0645251734923513e-07  8.4838538600746552e-08  1.7735919015503941e-11  2.1811939742422961e-10  9.7738504918322300e-05  4.9960866351221467e-11  -3.2262130166071616e-19  2.6860530420904741e-20  2.3362076578900656e-19  5.8809770097571288e-21  5.8628897258786801e-04  3.3019235779148478e-10  1.9836152385002905e-10  7.3484546760878811e-09  8.3261364179046997e-16  3.5760490931265783e-09  6.8807936858498316e-15  8.5576535552934878e-04  3.2251355783644310e-08  4.0341194234545639e-09  7.0289639984283359e-17  7.9218101155904392e-09  7.0407657893370758e-16  6.3099514168785192e-13  3.1002511345697812e-05  2.7990282154119175e-18  4.3358815353090435e-04  2.2598170421578575e-05  2.6390249361236566e-15  1.3374201848385382e-15  3.3580316789593986e-16  9.2600353587978720e-16  5.4703897414285014e-07  3.7714494315347178e-06  3.1348312537433825e-18  5.2920212457295243e-16  1.0252316034605777e-04  1.9616026585125318e-15  4.2382450965944128e-10  2.2160401294102527e-16  1.6865915383874747e-17  1.5802239536307546e-18  7.8908347893127191e-14  9.6494764977104037e-08  8.2820381878366487e-16  6.9304805065707742e-06  9.7794730473712600e-04  2.2714304130817793e-03  2.1739053388690182e-03  3.2754705376651347e-12  2.8339485631535238e-08  2.0426751735401010e-05  4.5688537451559590e-18  3.5505945731867313e-18  3.6497935523510341e-16  5.0443666443550512e-16  1.2616865208926924e-22  1.4171465783727672e-13  8.0912754355898818e-15  1.4563654630151635e-08  2.9855522502478271e-20  2.8142567819600838e-12  6.5476399794607426e-15  8.6793779219919494e-12  2.1665821997952478e-10  1.1512155328352775e-07  4.5582438428834419e-07  1.2919215346305065e-04  2.4733430862596377e-18  4.0813212630607173e-10  1.6592291800794919e-05  5.3433917901676859e-06  9.8638583761198738e-17  6.4151239972916850e-04  1.6693899143774019e-04  4.5825442635659175e-04  8.2573333188327267e-05  6.3052936059654806e-14  8.7079100278222193e-06  2.3759946429000313e-09  7.2585372204704488e-08  5.2119055138311113e-11  2.2783152942834655e-12  7.1735012148899896e-17  3.7939478341780318e-07  2.6918853276467174e-08  1.1823712309859165e-05  1.3641574643828189e-13  2.5354124030418283e-04  1.9531229554958597e-04  1.6183632982771828e-17  1.0270551905532699e-08  2.5263728140944075e-13  2.1045496962015316e-17  1.6916684174701310e-06  9.6405048977757867e-04  9.9619295919015484e-05  9.7401263494073622e-13  1.1348304758416893e-14  1.9078999563615979e-08  2.2899868160241872e-14  1.3189259397411665e-16  3.0587028624914162e-07  1.1187324450074954e-03  -7.8023870232154278e-24  1.5503373181809651e-06  1.6966306241109938e-06  7.0663657843314095e-06  5.4992480029424447e-19  9.7122019188540396e-09  2.0225556671221306e-07  2.2577552282752813e-11  2.0362628630788693e-03  1.7163548743537327e-04  5.4087508631251757e-17  1.4007993779103859e-06  6.2968109135741140e-12  5.3674578436774129e-14  3.4959423064957711e-15  6.0500055559913585e-06  2.5388317618493289e-05  5.9500853724149246e-10  3.0731445353712989e-12  3.2170637890700572e-14  1.2187091710277676e-15  1.6015566678910122e-08  1.0068518591755381e-07  7.5494299516882910e-16  1.4605021017388644e-14  1.7751262275300557e-18  2.4484634537858908e-10  2.9393045312162184e-11  9.3275068032644560e-13  2.6674804369817578e-13  3.0024669010453289e-08  7.3412985426529634e-19  4.8408531174455779e-09  2.6728287168660378e-05  1.3589658587181571e-15  1.2516558450040126e-21  5.2965815999528830e-04  2.6739466426861487e-11  3.7894554768266460e-08  2.0665444974935873e-07  -4.2669901697154486e-22  6.1648166851403112e-09  4.4739278901537885e-05  1.3295854231787926e-14  2.3539671065279528e-19  1.0311128291250985e-16  1.1980240701166365e-16  3.9618108090298186e-05  1.5553963872366003e-03  8.3190493085229410e-07  3.0698903692748529e-04  1.3229080335910593e-10  3.4924268348555787e-10  7.1345819964610372e-06  -1.6368572547760263e-20  -3.1722471682172286e-20  3.3040477444393408e-06  5.1347554588227483e-14  4.0282747944636371e-04  6.4778437293905069e-11  1.1374226351076114e-03  3.1968884562708960e-18  2.6393946721779855e-05  5.2341752729359826e-05  5.8641557180637407e-09  1.6949048875334885e-09  1.8308098266532669e-10  4.0547971229421922e-10  1.4526098263628447e-10  5.2165912082889454e-09  1.1974161307481582e-06  3.1485823485984656e-17  4.3550278916323137e-18  1.8244304814896567e-19  1.3306608652211708e-14  5.4585214971445315e-05  5.4656224351138689e-18  1.8105295745145047e-04  6.0895245804869046e-09  4.6721732021940834e-05  6.0905166151300638e-13  7.5502598531553216e-07  2.6276813917440778e-10  3.7935406859542199e-15  1.7503358987208760e-08  2.4321608197419035e-20  3.8764380778908224e-17  3.0246841322819997e-12  3.4319196224746645e-16  1.1738010703342722e-10  1.5790102597040165e-17  6.6702859521279023e-15  2.9797352381882306e-09  2.3343869861331359e-06  4.5272202085463290e-08  1.2282959079503168e-22  1.1856568046685782e-21  1.3744622346455777e-15  3.8355129244095463e-09  4.9500085131035946e-10  1.3271306411787798e-09  2.7585945172779564e-11  2.2239551650836972e-19  8.8019563488712397e-07  4.8403442079880918e-13  1.4612616533066973e-05  2.1525440522345105e-04  6.4887519533700660e-13  1.1316444312133459e-09  2.1830612948064168e-11  3.1292706402093583e-16  4.8234121773839755e-16  2.4883628372917279e-10  9.1367297351017635e-07  3.4747294551622255e-07  5.0952563516556665e-18  1.8707469240465608e-13  5.4098388520852847e-10  1.0994826089851080e-10  2.5055324789721064e-11  2.6805840738150009e-13  6.2457521118985275e-12  3.6436154643435313e-16  1.7118228482312342e-16  3.6378066277037143e-11  3.8527663159093971e-21  1.5418255349539932e-14  5.3926179261348814e-15  4.9316203949671591e-13  2.6868489366700360e-19  3.3296115901686790e-18  8.3680314236665233e-19  -1.0896080625846937e-24  7.3236020832025560e-13  1.4447976435120035e-17  6.0803517406947352e-05  8.3490973839886188e-05  1.4968114519088446e-09  1.0457160094645465e-15  1.3837231116432698e-17  3.9766962461104237e-10  8.0826440932308880e-21  1.9928062638151172e-19  4.0184587929379962e-07  1.2766497645030497e-07  3.1765775688462268e-22  1.1655638908960594e-13  9.3338098450282301e-09  5.9375476273721248e-06  3.9875755725545228e-14  2.7322816486552937e-14  -3.9877406296720736e-22  9.9226981109644548e-04  3.0413050231398718e-03  1.1828746362447203e-03  3.9704933879030310e-10  -4.3383700996894917e-24  1.0337087443900001e-11  2.1092628369634767e-04  2.2224373472480631e-20  3.5902710394382826e-15  4.5025495243884203e-13  1.8432483186988268e-11  1.4753368346482131e-13  7.6024181343808893e-22  8.8745029609232265e-10  4.7053171648685418e-17  2.9010873008549069e-20  4.7318493540675127e-04  4.3952270017443289e-07  1.9370359696134306e-09  4.0341135389046254e-16  4.3561091795983196e-19  5.6334849122663314e-09  4.0921719559176190e-13  1.2960780705855689e-06  1.8126706809138762e-09  1.5083677660814559e-20  2.2865090815624416e-07  1.5948969962748416e-04  7.5454873990497290e-06  9.1228244636038481e-12  9.3207287195405164e-06  1.3321644924789038e-06  1.0142534225068393e-06  4.3863170696970342e-16  3.8835570825768916e-12  7.6317363002356291e-05  2.3405750106499443e-06  4.6210036659883713e-05  6.0350086057921544e-08  3.1881063774035800e-06  5.1142356894609531e-04  6.2175857410885543e-05  2.3418526119257056e-18  1.5378905404870730e-19  7.3226151060340975e-08  5.8157126292994817e-07  4.0282115475925572e-07  9.1528780740784517e-07  5.5463942871836923e-03  5.3743602654125014e-13  8.7749860492335064e-17  7.0805802890720760e-10  2.5048664912255447e-17  2.8248437790296707e-19  5.5600080234049426e-19  8.2724146749508181e-12  1.9634556604756349e-18  2.0393390493596212e-05  1.2472258768930405e-15  3.0334462593406931e-08  1.4826960278209648e-14  6.1091975457927015e-15  -9.8256299119458244e-10  2.1874083615944036e-09  1.1943508180593007e-16  2.4702887010754940e-12  1.7975327904271285e-20  3.4018714888702196e-05  8.9022893285976307e-13  5.9357602053064334e-23  6.5493718911345858e-04  7.9670599036872820e-04  4.2312269842267996e-10  2.0752641070514848e-14  9.8313388128996414e-08  3.3806147386293392e-07  1.3147216844893069e-19  1.8223584674249764e-07  -1.1692701600353977e-21  1.3834704201379403e-17  1.9688052295607839e-08  8.4528933201067275e-15  2.5247517273617312e-03  1.0337028910971012e-08  1.0291562505166107e-12  1.2069469809064715e-11  8.7128310096445234e-10  1.9463595790672136e-16  3.9189405661642747e-16  3.0569681806686685e-10  8.8381038555380737e-06  1.2304272703447831e-10  3.6484285835285328e-13  4.3268014543963922e-17  3.6030941558412540e-18  7.7591260821074325e-13  9.4538405110532158e-06  1.9516891058486357e-16  2.1516478078515971e-18  5.2694904092220429e-11  4.3893094321596707e-22  1.1133236817698896e-16  9.1913232187509958e-21  2.8280784473190552e-16  5.3993143423799851e-17  6.1730398892319958e-17  2.8874996442035129e-08  7.3216118414000838e-17  2.6224191346431964e-19  1.1064618163086644e-17  1.7502073074258666e-15  4.0782167516315141e-19  5.8011904042355176e-19  5.0395709836552836e-19  8.2350731029346455e-05  2.1380249988940348e-05  4.0700378701050884e-06  1.4205849851004489e-16  4.2015026958589305e-04  4.3257126442809927e-09  -3.8934421140910434e-19  4.1059227463228767e-11  4.2197547538019864e-17  1.2158288386981778e-08  1.5890578894612773e-14  -4.4927201119506568e-25  3.5641136300439435e-08  8.7097962228329267e-14  3.8951570836744625e-06  3.8389948557420502e-04  8.8963529704056156e-19  3.4369694363003645e-22  3.3182502243574906e-23  3.0550160707520983e-23  3.8221039151528404e-07  1.8377466373327632e-17  5.1540570410198519e-04  7.5653879625673329e-20  3.1452938964700912e-21  3.7749216040671800e-24  3.7885399882210827e-13  1.2120165603266844e-13  5.2598308131752373e-08  6.0127250700349306e-16  5.0131008365970890e-09  6.9222607393790699e-16  8.7409342347849700e-04  1.7385939141741104e-03  1.6107275568906657e-03  3.8830709780623553e-17  8.3876355373832519e-08  3.5102520258082666e-04  5.6452032295316150e-04  8.5102400173399944e-12  2.3890182886029485e-05  3.5530123784941437e-06  4.8936433162966375e-12  4.1605523496510161e-07  1.2306187791955622e-07  3.5214168623497989e-08  3.3140284101909266e-06  6.5112263310844291e-04  1.6612489214460646e-03  3.0987481095179644e-16  3.8496014448975745e-12  1.1391787518760976e-10  3.9067212878045822e-15  1.1767040833203903e-03  4.5384393787921679e-18  1.5776285663455755e-07  9.2194432870948257e-12  9.7224374024724261e-06  3.2172754484439221e-04  1.0325294468397963e-08  4.7765292421314238e-11  1.5976036944177029e-09  1.9671812276019060e-04  4.6043682536231404e-05  9.4170027578754000e-16  5.1473429236146639e-17  7.3852300744091512e-04  1.0512928321369856e-15  3.3958356046503735e-17  1.1538832362673471e-06  5.3980877416924053e-10  1.6154537515144761e-04  9.1615283206419523e-11  4.0984175917128268e-04  1.1005063294918060e-16  2.5669052468474726e-08  1.1241256862738374e-08  2.9490041567246402e-14  1.1448880267035886e-12  7.2627473231411101e-13  3.3621530743767358e-14  9.1766338978127102e-14  6.5367031644594996e-13  1.3486289859268428e-06  3.7615947043159374e-12  2.0968294620062556e-09  5.5428039965952704e-07  2.6030263404160975e-10  1.0572781503413593e-10  7.6582727259628497e-16  3.7423197471811841e-08  1.4697437848662684e-12  1.5932702808267105e-13  2.9794408966343384e-12  1.9952730116185180e-11  6.7117164375701494e-08  4.9839135322736759e-08  5.7871287288969323e-09  1.1405147614940121e-05  3.0570973500385588e-19  5.4858799893028758e-14  2.6786439178477422e-14  8.9358996078221442e-14  1.7854043017071515e-13  2.6494330237341999e-14  5.0706935416035124e-16  9.6843458052200377e-10  1.0863021108785950e-11  2.5422737896325461e-16  3.4918667992978683e-19  2.3289492484887234e-15  8.2200677945011749e-09  2.5455966718050423e-06  1.4470812240455042e-05  1.0817654787603290e-09  -1.1550557071641963e-19  3.1777230119323720e-04  1.9780429015892890e-11  6.0444388581109096e-17  1.2534410260209576e-03  7.0988188268233131e-17  3.7306158673191878e-17  3.2900664253105527e-17  7.2578230735518292e-20  6.6145685124259958e-16  2.1044002386469228e-16  1.0494571972817265e-06  2.0915800782495844e-09  1.0508475576760635e-07  9.6266035310133235e-06  2.0395479879139986e-13  1.4141652918830664e-14  1.3066088564862974e-09  1.7509166745981879e-21  1.7240173082446334e-07  2.2016614405608626e-08  1.8639884934335330e-06  4.2951168993849834e-06  1.6021155890902532e-14  3.1874599420278854e-16  4.4944285214088395e-15  1.3679203719574942e-16  2.7258848502598613e-14  -1.4063376617181491e-22  9.2748396271608270e-20  8.8493829019817943e-13  1.3699680542954560e-14  1.2172689000960600e-20  3.8245160478607030e-20  1.3291560906774478e-12  8.9418277945724981e-15  6.7715853113741016e-14  3.5078195690617108e-13  6.36413255750