<?xml version="1.0"?>
<VTKFile type="UnstructuredGrid"  version="0.1"  >
<UnstructuredGrid>
<Piece  NumberOfPoints="6486" NumberOfCells="12696">
<Points>
<DataArray  type="Float64"  NumberOfComponents="3"  format="ascii">0 5 0  0 0 0  5 0 0  5 5 0  2.5 0 0  5 2.5 0  2.5 5 0  0 2.5 0  2.5 2.5 0  0 1.25 0  1.25 0 0  1.25 5 0  0 3.75 0  5 1.25 0  3.75 0 0  5 3.75 0  3.75 5 0  3.541666666666667 1.458333333333333 0  1.458333333333333 3.541666666666667 0  1.875 1.25 0  3.75 3.125 0  1.284722222222222 2.326388888888889 0  2.683189655172414 3.767959770114943 0  0.9375 0.9375 0  4.0625 4.0625 0  0.7252209595959597 3.026357323232324 0  2.763480392156863 0.9129901960784315 0  1.875 4.345238095238095 0  4.345238095238095 1.875 0  4.192708333333333 0.8072916666666664 0  0.8072916666666665 4.192708333333334 0  3.368055555555555 2.326388888888889 0  0.6837606837606839 1.738782051282051 0  3.285485245626782 4.324328415208927 0  2.551239698778062 1.693130150610969 0  1.827256944444444 2.868923611111111 0  3.464875022477093 0.6813924607921316 0  1.942880513719175 2.059558626187995 0  3.04563492063492 2.971230158730159 0  4.375 3.4375 0  2.13639445139758 0.5994472256987903 0  4.272228422619047 2.606956845238095 0  0.625 0 0  0 0.625 0  5 4.375 0  4.375 5 0  0.6400043240752655 2.384646170113389 0  1.347691225855598 1.660875475110776 0  3.515783617857982 3.723905460714006 0  3.125 0 0  1.875 0 0  0.625 5 0  4.375 0 0  5 1.875 0  0 1.875 0  0 3.125 0  1.875 5 0  5 0.625 0  0 4.375 0  3.125 5 0  5 3.125 0  1.489644181965304 0.6007147273217681 0  2.054597701149425 3.742302955665024 0  2.662520990197781 4.39452575763237 0  2.415835363784578 3.165530021913244 0  0.8679986894865213 3.602373689486522 0  1.267459753787878 2.886186079545454 0  4.099702380952381 1.365327380952381 0  1.316964285714286 4.438244047619047 0  3.7915135293491 1.959691594758709 0  2.875141124191255 2.118761176511833 0  3.00418010501169 1.397414179299248 0  0.4081721322167092 3.410647930198662 0  0.4166666666666666 0.9375 0  1.014190407998288 0.4422301359994293 0  1.383260571305984 1.162718286082048 0  4.53125 3.90625 0  4.453125 4.453125 0  3.772848162504192 4.48678272083473 0  2.8125 0.404329517041716 0  0.4538690476190476 0.4538690476190476 0  2.305461739347387 1.04517007574828 0  3.771263799175824 2.624190260297553 0  3.229617768018734 1.809956994202883 0  3.780190884441317 1.025307111692601 0  4.646337365591398 0.9375 0  4.537623451379149 0.4609485750426037 0  1.200477888421151 3.934852888421152 0  0.3536626344086022 4.0625 0  0.4623765486208503 4.539051424957397 0  4.0625 0.353662634408602 0  4.560525106689535 1.390989100915847 0  3.958439078571988 3.619844539285994 0  4.672619047619047 2.1875 0  2.1875 4.672619047619047 0  1.862808494877602 3.325947624431087 0  0.3268135998175443 2.8125 0  4.674181280189791 2.8125 0  2.283233994935276 4.138623547175983 0  0.9375 4.677879119362977 0  3.08488061581743 3.469889594488945 0  3.113427375573758 3.913955730709506 0  1.652847799068813 3.950848935641292 0  2.932652662909449 2.550542739521724 0  3.311350648514189 1.088831994878698 0  0.6770833333333333 1.295851139601139 0  0 1.5625 0  1.047214787840024 1.96818092308125 0  4.183331482095785 3.03958703580843 0  3.4375 5 0  1.071307777252521 3.246275861010018 0  0 2.1875 0  0.386576856303419 2.03125 0  1.713862716483534 2.439783116849799 0  1.775396256975935 1.665976816304977 0  2.231236976948428 1.443917394671254 0  2.373900732409897 2.086930260150635 0  4.114918237574474 2.221646174618671 0  3.661302567757379 4.099620139144836 0  3.378215938602977 2.734494874063393 0  0.9842097536079312 2.597286741306247 0  1.642795138888889 4.672619047619047 0  4.0625 5 0  2.099458800960004 2.567446522665629 0  2.616202751603346 1.297895893940078 0  5 4.6875 0  0.9937554350075428 1.512592975947215 0  2.8125 5 0  3.002695327068194 4.614055254615477 0  3.205627424097207 0.3852436382721472 0  1.678616581261621 0.927556612265266 0  3.365326698305438 3.196943731162083 0  1.554834936170314 3.120009882655813 0  3.108408340729323 0.7797187795784133 0  3.684368918102174 0.3728877601163941 0  2.716214835303553 3.39276351922003 0  2.37718583984784 3.551973401560441 0  0.3750662445374837 1.52191994866787 0  2.679073487930202 2.844160731602957 0  1.557635869750078 1.991068682985722 0  1.812595698561088 0.3839273018252746 0  2.512014721281916 0.6320641118792227 0  2.1875 0 0  2.349973454443689 0.3189980586887866 0  4.6875 3.59375 0  4.636052949022233 3.178355898044465 0  4.6875 5 0  3.345485909784306 4.665765449101383 0  0.536727472389443 3.749603193819277 0  4.349541499640203 1.116201826262156 0  2.886559045931982 1.774013674579691 0  0.6770833333333334 0.7142857142857143 0  1.5625 0 0  4.120842096538671 4.628726497527622 0  2.176157474177018 1.793470423744689 0  2.175650736889416 2.909863021769539 0  4.036616464259081 1.709699085170981 0  3.887974623473683 0.6492597046022868 0  3.4375 0 0  3.70675699592552 2.289666624772415 0  4.697265625 4.208984375 0  2.815177577303495 4.085937578239174 0  4.672619047619047 1.730733296184288 0  4.6875 0 0  5 0.3125 0  0.3125 5 0  0 4.6875 0  0.3276089296588581 2.484526834811734 0  0.712433309515852 2.065138854645612 0  0.6376435912223634 2.711473454001295 0  1.184991292170422 0.7222504400947201 0  1.31884329779317 0.3206944232264773 0  3.683609198994263 3.44428698533042 0  0.3125 0 0  0 0.3125 0  4.231797269642997 3.789141808928991 0  1.564375596050781 1.425998687184973 0  2.007640894175573 0.9032106925568466 0  0.955125897558294 2.276666098587227 0  1.43898735721003 2.611310720271951 0  1.954491523717513 4.040700257877075 0  1.752947649777421 3.652439445419346 0  2.509575750247638 4.678021307664052 0  4.687194709705067 2.499965519538002 0  1.5625 5 0  0.9375 5 0  5 2.8125 0  2.1875 5 0  5 1.5625 0  5 2.1875 0  4.0625 0 0  5 0.9375 0  2.8125 0 0  0.9375 0 0  0 0.9375 0  0 2.8125 0  0 3.4375 0  0 4.0625 0  5 3.4375 0  5 4.0625 0  4.010848109290813 3.306446973933037 0  0.3077461147713075 3.119700563473354 0  4.6796875 4.6796875 0  2.333079012424948 3.845757959077508 0  0.7829771267899832 3.317744656243421 0  1.159100632608513 3.532487125138763 0  0.799066251840424 3.893573750162776 0  1.57326499580282 4.255438189102632 0  0.7309366047093668 0.2991402264438908 0  0.3054777494262156 1.223275888123843 0  4.027475154280377 2.78211326942427 0  2.35270874745988 4.426658168476266 0  3.474236283732569 2.021154281686229 0  4.401414236174444 2.329446628171927 0  3.39403781747337 3.987097102903034 0  1.077524329801934 1.214100792470484 0  4.065611571711903 1.066085524514197 0  2.165399002716117 3.335637450367864 0  3.007639563081306 1.093684039371638 0  4.030818285732145 4.351883315180857 0  3.504115222530889 1.739284194222036 0  1.224503368215566 4.712091441401919 0  3.805634204685714 1.321528442399996 0  4.319233123479386 1.573547993867769 0  1.024007670021325 4.394604704797005 0  3.776400432023095 3.839003324979723 0  2.991819819453308 4.320567175146181 0  0.9782797534072181 2.886406017887129 0  1.763835134082104 0.6602345487826022 0  3.765182288741625 1.631193038541544 0  2.267959593989681 2.345053543725764 0  4.412434895833333 4.168294270833333 0  4.4072265625 4.7255859375 0  2.791493971314009 3.11210833271929 0  3.408766223032414 3.469500900677365 0  1.915147569444444 4.725484476461039 0  2.070301968506271 0.2605666686358055 0  2.767932250651506 1.530295992695836 0  3.280065043173439 1.364863281105779 0  4.45101570110842 2.974157152713635 0  3.521928862999512 2.96990445010402 0  2.552921961347576 4.008414007169315 0  0.2682955376854191 3.657555015841003 0  3.084522868361304 2.310593316718068 0  2.669255823227708 1.939379494498064 0  2.615884629473921 2.238841231570381 0  1.405652091971449 0.8877813821442277 0  3.25151486618811 3.68536115104276 0  1.963741569810629 2.331207252264507 0  4.017297980292599 2.486269171379106 0  3.869168920841219 4.748188103831625 0  3.596868753579134 4.77342723825056 0  2.41262958240343 2.764128584995838 0  1.266750578673391 1.404747710001619 0  1.559243962241121 2.85146506328516 0  3.128799423834764 2.052081657715259 0  0.6770833333333333 0.9778025793650794 0  0.2083333333333333 0.78125 0  1.978224492765132 3.087074731032578 0  4.051448850909273 1.969392119104174 0  1.320577095006813 4.172234780971559 0  3.214261103850064 2.534397293281829 0  0.2635729089754111 1.779234736680035 0  3.510775680035133 4.460728640112889 0  2.603081405968802 0.2432579385496493 0  2.866341315154884 0.6662105505481998 0  3.000919221100777 0.2270278495648781 0  1.298858304121393 2.05917319923859 0  2.020292299736597 1.589794568392338 0  0.7401688396476035 4.470780315741533 0  0.6721783535561408 4.733125588707921 0  3.753712482075402 2.874301339727514 0  3.557348205914658 2.491958694539413 0  1.094565978195436 0.2011034254079851 0  0.9338148378011396 0.6833568465908735 0  2.945530578578538 3.701798332963805 0  3.111707186654356 3.216904195825605 0  1.341791111822685 3.293123262233967 0  1.632939924064587 1.184895891095613 0  0.6335477978936732 3.517393619499591 0  0.5576014611130192 3.210998966942492 0  1.564344196470102 0.3630498725895039 0  2.75362450242839 4.626680495816594 0  3.571304405229554 1.192452351107437 0  3.522934592621944 0.9359134489437148 0  4.453125 3.671875 0  4.765625 3.828125 0  1.055906321410838 4.14310472322957 0  4.795146539102229 0.46875 0  4.767156345199235 0.7178596932040019 0  0.2048534608977711 4.53125 0  0.232843654800765 4.282140306795998 0  0.5393715189906129 4.270810883024032 0  4.329922600274667 0.2750645887059072 0  4.275515096738972 0.5448389557295173 0  4.477747423652795 0.7252838358993123 0  0.2002829820452772 0.46875 0  0.4352678571428572 0.6956845238095237 0  0.5007241582667088 0.2123388122114133 0  4.672890923830735 0.2500902110494848 0  0.4308009280819452 4.783624996516437 0  2.104871305393774 4.438653689007242 0  0.2274454167838428 0.2274454167838428 0  3.446466574593436 0.4359605369011901 0  2.12354112127588 1.217588426759619 0  2.309175236825235 0.7888355970690434 0  2.556178570281936 1.054299163237582 0  0.578683248637
[...]
<PointData  Scalars="f_800-1"> 
<DataArray  type="Float64"  Name="f_800-1"  format="ascii">4.6644884502320946e-02  6.5897151194483833e-02  4.5916948929506096e-02  4.5705289602161907e-02  5.5968913884021226e-02  4.5897095555425156e-02  4.6330991203485064e-02  5.6337665544308406e-02  5.5960148964736452e-02  6.1362798590937871e-02  6.1025321262474681e-02  4.6216114813608440e-02  5.1257286270841036e-02  4.5897638087622560e-02  5.0924739210185588e-02  4.5927066672310994e-02  4.6273449646629383e-02  5.1744974003972176e-02  5.2130327800721313e-02  5.8503705082983991e-02  5.0940755810787393e-02  5.7008739224266344e-02  5.1206755876876474e-02  6.2379225972430105e-02  4.9511028779436042e-02  5.4206820649938890e-02  5.4886782785249506e-02  4.8948916523057828e-02  4.8519419360297904e-02  4.9106956390397749e-02  4.9635579424295806e-02  5.2489415563634179e-02  5.9381162267109551e-02  4.8980234089179280e-02  5.5774103230266305e-02  5.4823129656867038e-02  5.2045661739583728e-02  5.8190094658886519e-02  5.3752441060176903e-02  4.8432282714552161e-02  5.7434165330353455e-02  4.8817984740934524e-02  6.3550315916596697e-02  6.3874996141091572e-02  4.5946860053995196e-02  4.6391546980175093e-02  5.6803195564964902e-02  6.0119351757718938e-02  5.1404910647549658e-02  5.3403629441468314e-02  5.8474637675587089e-02  4.6524461604418768e-02  4.8400335905833439e-02  4.5870982240984473e-02  5.8844471665777068e-02  5.3796334746912547e-02  4.6302904805791613e-02  4.5907037212858007e-02  4.9079311968222600e-02  4.6303928940962476e-02  4.5901387390382957e-02  6.0055430968714608e-02  5.1338342483511865e-02  4.8697439882712718e-02  5.3702632587294019e-02  5.1874693837394861e-02  5.4796174368282220e-02  4.9488622710345327e-02  4.8537702162027872e-02  5.0760564959684305e-02  5.4469120138469627e-02  5.3932283783740174e-02  5.2646755359998215e-02  6.2618039969033992e-02  6.1979745594607762e-02  6.0447309837763689e-02  4.7812750982285546e-02  4.7906262760966337e-02  4.8402058535669430e-02  5.4696954014445999e-02  6.4061305227529064e-02  5.6772663140069825e-02  5.0870148323335897e-02  5.3039662604175898e-02  5.0780198724709923e-02  4.7297989208110625e-02  4.7747426610625851e-02  5.0534636655568524e-02  4.9994835454055864e-02  4.8078620937079444e-02  4.9650162917530577e-02  4.7617540321449575e-02  5.0088272110178640e-02  4.7195070553053928e-02  4.7626533498294238e-02  5.2998993089030041e-02  5.5072908408044949e-02  4.7188798831629124e-02  4.9737851786470215e-02  4.7521373057503889e-02  5.2602332855756814e-02  5.0686207961805452e-02  5.0487572864985161e-02  5.4229239543649839e-02  5.2670417159391643e-02  6.1174656008188742e-02  6.0105122216984955e-02  5.8452501068103735e-02  4.9214353498781623e-02  4.6290123238667942e-02  5.3314099897882911e-02  5.7585968426375901e-02  5.8266682447331866e-02  5.6591007851737596e-02  5.8926960786172738e-02  5.7064447787361611e-02  5.6490416539885839e-02  4.9438390968080295e-02  5.0026972676067198e-02  5.2441912831746422e-02  5.5933132099257862e-02  4.7557548413058870e-02  4.6297511794725826e-02  5.6294379999140949e-02  5.5524783192528723e-02  4.5901728247642166e-02  6.0427731641237215e-02  4.6322311932359798e-02  4.7836480482908859e-02  5.3089748144954672e-02  5.9295582982458211e-02  5.2489095043775816e-02  5.3843054103714365e-02  5.3498595276684532e-02  5.1147974286879942e-02  5.2825426078874596e-02  5.2075322961279959e-02  6.0257236499738499e-02  5.4982769322211210e-02  5.8704396972314506e-02  5.8741459449329965e-02  5.5899657778904668e-02  5.7209707345259556e-02  5.6545398102891289e-02  4.7169016653958763e-02  4.7356513927180571e-02  4.6288991950154561e-02  4.7582973873014189e-02  5.1254241814303492e-02  4.8468931748740889e-02  5.4442686847615544e-02  6.3499957547315550e-02  5.9755382797697397e-02  4.7870967652411833e-02  5.7281065322636514e-02  5.4729488110306500e-02  4.9745078324436899e-02  5.0327166985312109e-02  5.2161120273080987e-02  5.1110212004434066e-02  4.7121393878784383e-02  4.9945076583209624e-02  4.7173672382717663e-02  4.7142920597456353e-02  4.5916480653269774e-02  4.6686953900938764e-02  4.7814950512293126e-02  5.6387433073911183e-02  5.8074385267148337e-02  5.5471729614687514e-02  6.1290278622801425e-02  6.0745766779453376e-02  5.1197000954354158e-02  6.4814317471877325e-02  6.5099249499606465e-02  4.8989010688100437e-02  5.9750399447939806e-02  5.7968375226335273e-02  5.7217194469400726e-02  5.5875245372595896e-02  5.0144922059505950e-02  5.1690872382618165e-02  4.7585328363165161e-02  4.7133267077295579e-02  4.6339311544108329e-02  4.6290081746751609e-02  4.5906031500814785e-02  4.6298024050169133e-02  4.5876759708156897e-02  4.5879971242307860e-02  4.9660947077527370e-02  4.5918956875359788e-02  5.4676079405064588e-02  6.2283714689949296e-02  6.2614125262832804e-02  5.5058801300206635e-02  5.2526064563135424e-02  4.9897585219423841e-02  4.5913982695016772e-02  4.5934105846975250e-02  4.9891955266796802e-02  5.3819388555455712e-02  4.6980834945881400e-02  5.0916077175146617e-02  5.3032293333726631e-02  5.2172665984142448e-02  5.0715768605175640e-02  4.9277956929448072e-02  6.3122404635865020e-02  6.1460115472981865e-02  4.9829919797492364e-02  4.8622979902952876e-02  5.2048715103047538e-02  4.8277336121589298e-02  5.0463091988470543e-02  6.1880375748100624e-02  4.9618589654456473e-02  5.2946646827913689e-02  5.3906004478524762e-02  4.8938020458467200e-02  5.1909448949457059e-02  4.7491262361424424e-02  5.0686044913447373e-02  4.8603867886244184e-02  4.8789007955935298e-02  5.0611450334947405e-02  4.8977958811445940e-02  5.4774252284422453e-02  5.8952416776000556e-02  5.0842116986129740e-02  5.6866604131422936e-02  4.8236716622285861e-02  4.7395102580541831e-02  5.4062290291712292e-02  5.2140476447747990e-02  4.7369398370042233e-02  5.7691211360145829e-02  5.4904669456635365e-02  5.2808784250692666e-02  4.8103106472216384e-02  5.1855140552688993e-02  5.0246566247509158e-02  5.1637491807292130e-02  5.3627676517676748e-02  5.5298743907994725e-02  5.5514254897104237e-02  6.0396998351208236e-02  5.1722897571954141e-02  5.7317277471601431e-02  4.9852370051238055e-02  4.7298678883102768e-02  4.7160675072886328e-02  5.5521067485725030e-02  6.1052411284867068e-02  5.4906578466588030e-02  5.3456036128551661e-02  6.3098037471791046e-02  6.3233004213875163e-02  5.3946704804466894e-02  4.9696431530488923e-02  4.9590859872952038e-02  5.3101422150438324e-02  5.9226697570825916e-02  4.8438914348393453e-02  5.5544000735646290e-02  5.4465629754964974e-02  5.3918322988118272e-02  5.8092288846032861e-02  5.7906889868537897e-02  4.8350527306280311e-02  4.7303806693635049e-02  5.0929455625386540e-02  5.1733411909509273e-02  6.1651686146339306e-02  6.2260277646793358e-02  5.1549050819822057e-02  5.3305475041982672e-02  5.3138021331703408e-02  5.9472732942697087e-02  5.2229464881120034e-02  5.3459290501279476e-02  5.9758293869585248e-02  4.7774906194349605e-02  5.1626650274107497e-02  5.1831248592672192e-02  4.8113895763876334e-02  4.6862335696627490e-02  4.9716162915028464e-02  4.6699985470569312e-02  4.6832952727519479e-02  4.8387045911564237e-02  4.9090088678837768e-02  4.9160317027044133e-02  4.8585081503228114e-02  4.8792132545244872e-02  4.7978714230777569e-02  6.5836373072074128e-02  6.4562326596400529e-02  6.4049621007012919e-02  4.7203074069457618e-02  4.7365248149578820e-02  4.8559173058399643e-02  6.4842554399090743e-02  5.2105873661500920e-02  5.7499051035023431e-02  5.6746646498278250e-02  5.5758245193322273e-02  5.0397317515064072e-02  5.2817846626721725e-02  5.7343152493572518e-02  5.0717003593230260e-02  5.0450280447566130e-02  4.6898506649713352e-02  4.6792306603813304e-02  4.6838108300919071e-02  6.1271936298962076e-02  5.1131207256380151e-02  5.1120292418141748e-02  5.3663517127973105e-02  4.8478821543094089e-02  5.3620696100302082e-02  5.1155971013998845e-02  5.9328215996507574e-02  5.2894827866654087e-02  5.2158934794793048e-02  4.8526066206307790e-02  5.9122157944546769e-02  4.8087142779046688e-02  4.9319960719485183e-02  5.7257526420193508e-02  4.6787715670303723e-02  6.0734022069222002e-02  5.6117724808350762e-02  4.9332991984212662e-02  4.9871270569292331e-02  4.9989063113690314e-02  4.6966412797589847e-02  5.4675071576982349e-02  5.5705452730673746e-02  4.6531703249156724e-02  4.7873310333356407e-02  5.8105877791796129e-02  5.2778416948287311e-02  5.2653437243000541e-02  4.9359776609345880e-02  5.1526037780917348e-02  4.6541447645794834e-02  4.9843895769833273e-02  5.4678478292158064e-02  4.7149573258597748e-02  5.5814333305280101e-02  6.0270141304943382e-02  6.2386125681056052e-02  6.1801366119571113e-02  5.2670622038331234e-02  5.3167680920695806e-02  5.6954666752775052e-02  4.6530450810796098e-02  4.6534626074299992e-02  4.6916450854990945e-02  4.7383034166254764e-02  4.6373051775223613e-02  5.0065991705004170e-02  4.8816795910237090e-02  5.4821165863394486e-02  4.6986088385468049e-02  5.3679091331131829e-02  4.9572938614206766e-02  4.9765709814473577e-02  5.0880410142342715e-02  5.5150358191390907e-02  5.4477619532374462e-02  6.2883168061118266e-02  4.8596347539970518e-02  5.3204198818677328e-02  5.7483687221197191e-02  5.6402230824143314e-02  4.6927645829752063e-02  5.9002831136857427e-02  5.8864737859689285e-02  5.9837235071878492e-02  5.8236614352942306e-02  5.0117127440818719e-02  5.5680624774304070e-02  5.2095024631442763e-02  5.3804964363204533e-02  5.0546278608367898e-02  4.9377879577437549e-02  4.7658597758431454e-02  5.4007532450488484e-02  5.5897000925575688e-02  6.1154311148687329e-02  4.8474345254315418e-02  5.9026915173025128e-02  5.9015418792467765e-02  4.8580074343648465e-02  5.4390524045820184e-02  5.2822626566797967e-02  4.7553620520292383e-02  5.5303801041174681e-02  6.2276370858805420e-02  5.8443945077040489e-02  5.0260414106885212e-02  4.8923156660391702e-02  5.4367272953440182e-02  4.9061717072902682e-02  4.7268753090207831e-02  5.3912414183003965e-02  5.9762394901539478e-02  4.6492224578850258e-02  5.6452155872435884e-02  5.6089359344814196e-02  5.6633191047565340e-02  4.8371563996197173e-02  5.2581147401584538e-02  5.3935837596648779e-02  5.1585960359280592e-02  6.1351819243416879e-02  5.7581072379156224e-02  4.6241317141898025e-02  5.6367323168511493e-02  5.0747749066586460e-02  5.0872716385595797e-02  4.8406557420421811e-02  5.5412684525078443e-02  5.6545821944601955e-02  5.1396299763611306e-02  5.1802772488453969e-02  5.0760865227463758e-02  5.0066674154776669e-02  6.0382643776102647e-02  5.4582225746222103e-02  4.6923277069484466e-02  4.7920711988838821e-02  4.9604472752495750e-02  5.5856475442080777e-02  5.0277963070215502e-02  5.4737064970386100e-02  4.9785398961334645e-02  6.0080810971520848e-02  4.7718470891707977e-02  5.2411525661202905e-02  5.7504771487747214e-02  5.1360523815711809e-02  4.6863754108793378e-02  5.9301617082934549e-02  5.2732379567327882e-02  5.4711089945995210e-02  5.8252931239267745e-02  4.7772863424853665e-02  5.2872020476715326e-02  5.7627455798787239e-02  4.8378263473098385e-02  4.7139330768229633e-02  4.8001214449043178e-02  4.6291990309527860e-02  5.7920584802387758e-02  6.0384620846955318e-02  5.5638139612394270e-02  5.9963394288067358e-02  5.2340876229619866e-02  5.3284006315993754e-02  5.6131912190441863e-02  4.9036253605599746e-02  4.9275045113116832e-02  5.5362259673534718e-02  4.8139876489577189e-02  5.8603605233740898e-02  5.3324157774034410e-02  6.0998628394896122e-02  5.0400515456905833e-02  5.9768202327883574e-02  5.8843015229509861e-02  5.6634888103815922e-02  5.5214896050027017e-02  5.5221910431836760e-02  5.2015343473181437e-02  5.1335349179100272e-02  5.3477328799933256e-02  6.2359457592126959e-02  4.6380539997299339e-02  4.8073763115108151e-02  4.7992858824449411e-02  4.8066019992534834e-02  5.6751756533526432e-02  4.6303384372891658e-02  5.9914727847618039e-02  5.7255319982537453e-02  5.6625718354827187e-02  4.9147747704869967e-02  5.4267463469931367e-02  5.4198555745613261e-02  4.9117664303369925e-02  5.3779523699616090e-02  4.5867996295019961e-02  4.7272119367781890e-02  5.0616545004398404e-02  4.8982868867721130e-02  5.1018146050171811e-02  4.8912538549541584e-02  5.0014254103647154e-02  5.3035356033190255e-02  5.6266474028668481e-02  6.2917727432432596e-02  4.5905639554685761e-02  4.6587318836875793e-02  4.6980222560577073e-02  5.8414174556329503e-02  5.1585593998181654e-02  5.1945721805614839e-02  5.1466858782962865e-02  4.7145222402656103e-02  5.8012089600945380e-02  4.9444273329871023e-02  5.8075156290931421e-02  5.7930079428468069e-02  5.0084504960199963e-02  5.1889682956933560e-02  5.0394996625498852e-02  4.6865934784813157e-02  4.6909082003067662e-02  5.7008420004977516e-02  5.9409727973277766e-02  5.5365403729456433e-02  4.7478751778070455e-02  4.8605461955767995e-02  5.1197166623675447e-02  5.1841532323069768e-02  5.1335401419364018e-02  5.0664114199956430e-02  4.9992826015410351e-02  4.8804277451428214e-02  4.9050261437871508e-02  5.6184295074981946e-02  4.5895412057456918e-02  4.9213523960890605e-02  4.9382098179719024e-02  5.0198353221725632e-02  4.6531993706294010e-02  4.7485127629741684e-02  4.6625868336066870e-02  4.5896220012308753e-02  4.9094492197285587e-02  4.9002449937793610e-02  5.7530248543412495e-02  5.7404134720124241e-02  5.2773666331715277e-02  4.8267206729403975e-02  4.6951485618230780e-02  5.2418522035314288e-02  4.6521083917089347e-02  4.7719249601287130e-02  5.5132165016033879e-02  5.4589119193455056e-02  4.7426474987110362e-02  4.8719556609100115e-02  5.2389578579370648e-02  5.8609954563198237e-02  5.0274196046962573e-02  4.7932843804166431e-02  4.7887225006465466e-02  6.3828459592545878e-02  6.3869007074385781e-02  6.2817768249755990e-02  5.1451086008085123e-02  4.6516077597264137e-02  5.1838723814915874e-02  5.9472654249750838e-02  4.6536357346741664e-02  4.7860154470185497e-02  5.3783931689296224e-02  5.2301620455902038e-02  4.9250208574602022e-02  4.6500177311420449e-02  5.3809545097296275e-02  4.7890930541224001e-02  4.6574995914550242e-02  5.9729556582113652e-02  5.4242198392802532e-02  5.2734738532452821e-02  4.7838601097169163e-02  4.6506579858737060e-02  5.2148024309818936e-02  5.1189897834844407e-02  6.1404395906104824e-02  5.3320277608811140e-02  4.5929044030564692e-02  5.5642118186710672e-02  5.8386922415192173e-02  5.5441901465946374e-02  5.2322482076271271e-02  5.6129690678797153e-02  5.5772899090124742e-02  5.7261418288111980e-02  4.7869881455799630e-02  5.0905185222580099e-02  6.3520442338257224e-02  5.5477660531476847e-02  6.0583601113578057e-02  6.0996240989375131e-02  6.0500250758948944e-02  6.1701719723477537e-02  6.1730758406883204e-02  4.6524277218566681e-02  4.5876344705173572e-02  5.4999022848673043e-02  5.4595134243988229e-02  5.5121382894659253e-02  5.4845248390238605e-02  6.4341045608440159e-02  5.1609671980054714e-02  4.7386542223521060e-02  5.7845005624703606e-02  4.8354518059653927e-02  4.7901261992682055e-02  4.7646136004136370e-02  5.0549225691629472e-02  4.8462043927986129e-02  5.7283343185810125e-02  4.9438192658991721e-02  5.4246150921729103e-02  4.8101275015501953e-02  4.7599707671931953e-02  6.5408633365365496e-02  6.5149035489333262e-02  4.9210599553324706e-02  5.5313138159371708e-02  4.7349796515052826e-02  6.4585509933938315e-02  4.9533759819533132e-02  4.6455133764039369e-02  6.0346282315861588e-02  6.0478504399985741e-02  5.2400709382556754e-02  4.9513514854463557e-02  5.3377533641434272e-02  5.7383872172820136e-02  4.6281207844249307e-02  6.3440161705384551e-02  4.8188803082805820e-02  4.9655820892306281e-02  5.8085288722446303e-02  4.8767930806918075e-02  6.1985835188229296e-02  5.2807993577050044e-02  4.9107749179102482e-02  4.9924663722493060e-02  5.1491107275555621e-02  4.9600765903103562e-02  5.2144583721878399e-02  5.3249061134152759e-02  5.6549128553175017e-02  5.1846170652815340e-02  5.0267464995719449e-02  4.7160446191704078e-02  4.6484260193502561e-02  4.9364898380910592e-02  5.6330880197179030e-02  4.6921843481703994e-02  4.6504312513506264e-02  5.6588988464898418e-02  4.6383894227838396e-02  4.6335229818017701e-02  4.6373195193756434e-02  4.7186394975637279e-02  4.6596020446495072e-02  4.6372799542493334e-02  5.3158281943558192e-02  4.6402487812447935e-02  4.5907602004924893e-02  5.1544830548431356e-02  5.2782766806457417e-02  4.5889555429553038e-02  4.5902421527289995e-02  4.5903785221326522e-02  5.8216740647729387e-02  5.6961443908211361e-02  5.5701536599941599e-02  4.6307541745889524e-02  6.0737703837065872e-02  5.9122799132001115e-02  5.0288919882237194e-02  5.0610668359182501e-02  4.6617591620264173e-02  6.4180406907495366e-02  4.8468977578154333e-02  4.5917361490456429e-02  6.1654065240092759e-02  5.4043435604870058e-02  6.4447467896687857e-02  6.3239905801213123e-02  4.6269625542622442e-02  4.5924376288977969e-02  4.5860656580460651e-02  4.6073981920944598e-02  5.4430343161709305e-02  4.6308665033144299e-02  6.1992887604134579e-02  4.5924011630653377e-02  4.5957275816221013e-02  4.5909699755217581e-02  5.0723989154839763e-02  4.8699515233591624e-02  5.3281737630104693e-02  4.6926706087570901e-02  5.4157199071882364e-02  4.7055862741045548e-02  6.1130821460190887e-02  6.1381342981740056e-02  6.2288658238575968e-02  4.7911750788245881e-02  6.2601937779096478e-02  5.9374476335581981e-02  6.1659072343684181e-02  5.0152949217419585e-02  5.6215277094375446e-02  5.7382661784575635e-02  4.9553306317922763e-02  5.4446404282731349e-02  5.3859080060894349e-02  5.3293180328226115e-02  5.5698200540112951e-02  6.0850653588689886e-02  6.2012254211497170e-02  4.7801031495385733e-02  5.1395209851631825e-02  5.0753418216768521e-02  4.8497722082010697e-02  6.0540029173045559e-02  4.6569473980566614e-02  5.4039093030997208e-02  4.9915827936056777e-02  5.7222872254296897e-02  5.8731865373233258e-02  5.4515607107600464e-02  5.0346976730608589e-02  5.4348576757577448e-02  5.7915302161170842e-02  5.7389150411610822e-02  5.0551472892890782e-02  4.7494586500274744e-02  5.9069505859636579e-02  4.8628909990387686e-02  4.8155653311289043e-02  5.4554291620175104e-02  5.2436033610002659e-02  5.9075772856868838e-02  5.2022259529492312e-02  6.0716839003492000e-02  4.7895084646213032e-02  5.2830831909288840e-02  5.2486672222952301e-02  4.9233658908828783e-02  5.0481356477468924e-02  5.0228546261930421e-02  4.9397730183745256e-02  4.9500853173760948e-02  4.9053232448249544e-02  5.5091337949058815e-02  4.9881308619715813e-02  5.1993399118146252e-02  5.5531520286109637e-02  5.1307890159699526e-02  5.0965417802237345e-02  4.7432339374632447e-02  5.4039434088936841e-02  5.1324909011100914e-02  5.0984550785915052e-02  4.9674173753576842e-02  5.0353306280003542e-02  5.3587132515315397e-02  5.3327266466204219e-02  5.2466015444963342e-02  5.6866358949827438e-02  4.8541885690336434e-02  4.8203390739094951e-02  4.8102611080048548e-02  4.8571959787639805e-02  4.8965464769785465e-02  4.8208311619056941e-02  4.7839491473164950e-02  5.3328074666959664e-02  5.4284074782625029e-02  4.7954964487561549e-02  4.6656242240825964e-02  4.8416038443640709e-02  5.2525976492567822e-02  5.4835296637845823e-02  5.6674777076534677e-02  5.3026334303282838e-02  4.9860570417371380e-02  5.9357900381339826e-02  5.5295309537848433e-02  4.7600583842339110e-02  5.9895952238002738e-02  5.0743867211819324e-02  4.9216082306722406e-02  4.8824739905687628e-02  4.6569839037183904e-02  4.8981266572136584e-02  4.7024785558695222e-02  5.4771753475004868e-02  5.3488798291861907e-02  5.4845053176048722e-02  5.5956432310843775e-02  5.0471326857350174e-02  5.0255566792156148e-02  5.1634980169583407e-02  4.7389584098719337e-02  5.6450092600289749e-02  5.3374424398043623e-02  5.4808155066458981e-02  5.5373094215757819e-02  4.8079511234188972e-02  4.6815733063440182e-02  5.0221142210072692e-02  4.6824127040385979e-02  5.0134783420707388e-02  4.7454244572504918e-02  4.7571697105828474e-02  4.9395648383963431e-02  5.3387542844041222e-02  4.7385700858907753e-02  4.9230530005033163e-02  5.0390251053188284e-02  4.7896372277235533e-02  4.8514974286440200e-02  4.9014794488300865e-02  4.7721917438798327e-02  5.57888757778