<?xml version="1.0"?>
<VTKFile type="UnstructuredGrid"  version="0.1"  >
<UnstructuredGrid>
<Piece  NumberOfPoints="6486" NumberOfCells="12696">
<Points>
<DataArray  type="Float64"  NumberOfComponents="3"  format="ascii">0 2.5 0  0 0 0  2.5 0 0  2.5 2.5 0  1.25 0 0  2.5 1.25 0  1.25 2.5 0  0 1.25 0  1.25 1.25 0  0 0.625 0  0.625 0 0  0.625 2.5 0  0 1.875 0  2.5 0.625 0  1.875 0 0  2.5 1.875 0  1.875 2.5 0  1.770833333333333 0.7291666666666666 0  0.7291666666666666 1.770833333333333 0  0.9375 0.625 0  1.875 1.5625 0  0.642361111111111 1.163194444444444 0  1.341594827586207 1.883979885057471 0  0.46875 0.46875 0  2.03125 2.03125 0  0.3626104797979798 1.513178661616162 0  1.381740196078431 0.4564950980392157 0  0.9375 2.172619047619047 0  2.172619047619047 0.9375 0  2.096354166666667 0.4036458333333332 0  0.4036458333333333 2.096354166666667 0  1.684027777777778 1.163194444444444 0  0.3418803418803419 0.8693910256410255 0  1.642742622813391 2.162164207604464 0  1.275619849389031 0.8465650753054845 0  0.9136284722222221 1.434461805555556 0  1.732437511238546 0.3406962303960658 0  0.9714402568595876 1.029779313093998 0  1.52281746031746 1.485615079365079 0  2.1875 1.71875 0  1.06819722569879 0.2997236128493951 0  2.136114211309524 1.303478422619048 0  0.3125 0 0  0 0.3125 0  2.5 2.1875 0  2.1875 2.5 0  0.3200021620376328 1.192323085056694 0  0.6738456129277992 0.8304377375553881 0  1.757891808928991 1.861952730357003 0  1.5625 0 0  0.9375 0 0  0.3125 2.5 0  2.1875 0 0  2.5 0.9375 0  0 0.9375 0  0 1.5625 0  0.9375 2.5 0  2.5 0.3125 0  0 2.1875 0  1.5625 2.5 0  2.5 1.5625 0  0.7448220909826522 0.3003573636608841 0  1.027298850574712 1.871151477832512 0  1.331260495098891 2.197262878816185 0  1.207917681892289 1.582765010956622 0  0.4339993447432606 1.801186844743261 0  0.6337298768939392 1.443093039772727 0  2.049851190476191 0.6826636904761904 0  0.6584821428571428 2.219122023809524 0  1.89575676467455 0.9798457973793544 0  1.437570562095628 1.059380588255917 0  1.502090052505845 0.6987070896496241 0  0.2040860661083546 1.705323965099331 0  0.2083333333333333 0.46875 0  0.5070952039991439 0.2211150679997147 0  0.6916302856529919 0.5813591430410241 0  2.265625 1.953125 0  2.2265625 2.2265625 0  1.886424081252096 2.243391360417365 0  1.40625 0.202164758520858 0  0.2269345238095238 0.2269345238095238 0  1.152730869673694 0.5225850378741401 0  1.885631899587912 1.312095130148776 0  1.614808884009367 0.9049784971014416 0  1.890095442220658 0.5126535558463003 0  2.323168682795699 0.46875 0  2.268811725689575 0.2304742875213018 0  0.6002389442105756 1.967426444210576 0  0.1768313172043011 2.03125 0  0.2311882743104251 2.269525712478698 0  2.03125 0.176831317204301 0  2.280262553344767 0.6954945504579233 0  1.979219539285994 1.809922269642997 0  2.336309523809524 1.09375 0  1.09375 2.336309523809524 0  0.9314042474388009 1.662973812215543 0  0.1634067999087722 1.40625 0  2.337090640094896 1.40625 0  1.141616997467638 2.069311773587991 0  0.46875 2.338939559681489 0  1.542440307908715 1.734944797244472 0  1.556713687786879 1.956977865354753 0  0.8264238995344066 1.975424467820646 0  1.466326331454725 1.275271369760862 0  1.655675324257095 0.5444159974393489 0  0.3385416666666666 0.6479255698005697 0  0 0.78125 0  0.5236073939200119 0.984090461540625 0  2.091665741047893 1.519793517904215 0  1.71875 2.5 0  0.5356538886262603 1.623137930505009 0  0 1.09375 0  0.1932884281517095 1.015625 0  0.8569313582417669 1.2198915584249 0  0.8876981284879677 0.8329884081524883 0  1.115618488474214 0.7219586973356271 0  1.186950366204949 1.043465130075318 0  2.057459118787237 1.110823087309335 0  1.830651283878689 2.049810069572418 0  1.689107969301489 1.367247437031697 0  0.4921048768039656 1.298643370653124 0  0.8213975694444444 2.336309523809524 0  2.03125 2.5 0  1.049729400480002 1.283723261332814 0  1.308101375801673 0.6489479469700392 0  2.5 2.34375 0  0.4968777175037714 0.7562964879736076 0  1.40625 2.5 0  1.501347663534097 2.307027627307738 0  1.602813712048603 0.1926218191360736 0  0.8393082906308107 0.463778306132633 0  1.682663349152719 1.598471865581041 0  0.7774174680851571 1.560004941327907 0  1.554204170364662 0.3898593897892066 0  1.842184459051087 0.186443880058197 0  1.358107417651776 1.696381759610015 0  1.18859291992392 1.77598670078022 0  0.1875331222687418 0.7609599743339348 0  1.339536743965101 1.422080365801479 0  0.7788179348750389 0.9955343414928611 0  0.9062978492805438 0.1919636509126373 0  1.256007360640958 0.3160320559396114 0  1.09375 0 0  1.174986727221844 0.1594990293443933 0  2.34375 1.796875 0  2.318026474511116 1.589177949022232 0  2.34375 2.5 0  1.672742954892153 2.332882724550692 0  0.2683637361947215 1.874801596909639 0  2.174770749820102 0.5581009131310781 0  1.443279522965991 0.8870068372898454 0  0.3385416666666667 0.3571428571428572 0  0.78125 0 0  2.060421048269335 2.314363248763811 0  1.088078737088509 0.8967352118723447 0  1.087825368444708 1.454931510884769 0  2.018308232129541 0.8548495425854904 0  1.943987311736842 0.3246298523011434 0  1.71875 0 0  1.85337849796276 1.144833312386208 0  2.3486328125 2.1044921875 0  1.407588788651747 2.042968789119587 0  2.336309523809524 0.865366648092144 0  2.34375 0 0  2.5 0.15625 0  0.15625 2.5 0  0 2.34375 0  0.1638044648294291 1.242263417405867 0  0.356216654757926 1.032569427322806 0  0.3188217956111817 1.355736727000647 0  0.5924956460852111 0.36112522004736 0  0.6594216488965849 0.1603472116132387 0  1.841804599497131 1.72214349266521 0  0.15625 0 0  0 0.15625 0  2.115898634821499 1.894570904464496 0  0.7821877980253907 0.7129993435924866 0  1.003820447087786 0.4516053462784233 0  0.477562948779147 1.138333049293613 0  0.719493678605015 1.305655360135975 0  0.9772457618587566 2.020350128938537 0  0.8764738248887107 1.826219722709673 0  1.254787875123819 2.339010653832026 0  2.343597354852534 1.249982759769001 0  0.78125 2.5 0  0.46875 2.5 0  2.5 1.40625 0  1.09375 2.5 0  2.5 0.78125 0  2.5 1.09375 0  2.03125 0 0  2.5 0.46875 0  1.40625 0 0  0.46875 0 0  0 0.46875 0  0 1.40625 0  0 1.71875 0  0 2.03125 0  2.5 1.71875 0  2.5 2.03125 0  2.005424054645407 1.653223486966518 0  0.1538730573856537 1.559850281736677 0  2.33984375 2.33984375 0  1.166539506212474 1.922878979538754 0  0.3914885633949916 1.65887232812171 0  0.5795503163042564 1.766243562569382 0  0.399533125920212 1.946786875081388 0  0.7866324979014098 2.127719094551316 0  0.3654683023546834 0.1495701132219454 0  0.1527388747131078 0.6116379440619215 0  2.013737577140188 1.391056634712135 0  1.17635437372994 2.213329084238133 0  1.737118141866284 1.010577140843115 0  2.200707118087222 1.164723314085963 0  1.697018908736685 1.993548551451517 0  0.5387621649009668 0.6070503962352419 0  2.032805785855952 0.5330427622570983 0  1.082699501358059 1.667818725183932 0  1.503819781540653 0.5468420196858188 0  2.015409142866072 2.175941657590429 0  1.752057611265444 0.869642097111018 0  0.612251684107783 2.356045720700959 0  1.902817102342857 0.6607642211999982 0  2.159616561739693 0.7867739969338844 0  0.5120038350106624 2.197302352398502 0  1.888200216011548 1.919501662489862 0  1.495909909726654 2.16028358757309 0  0.489139876703609 1.443203008943564 0  0.8819175670410521 0.3301172743913011 0  1.882591144370812 0.8155965192707721 0  1.133979796994841 1.172526771862882 0  2.206217447916667 2.084147135416667 0  2.20361328125 2.36279296875 0  1.395746985657004 1.556054166359645 0  1.704383111516207 1.734750450338683 0  0.9575737847222222 2.36274223823052 0  1.035150984253136 0.1302833343179028 0  1.383966125325753 0.7651479963479179 0  1.64003252158672 0.6824316405528895 0  2.22550785055421 1.487078576356817 0  1.760964431499756 1.48495222505201 0  1.276460980673788 2.004207003584658 0  0.1341477688427096 1.828777507920502 0  1.542261434180652 1.155296658359034 0  1.334627911613854 0.9696897472490321 0  1.30794231473696 1.119420615785191 0  0.7028260459857245 0.4438906910721139 0  1.625757433094055 1.84268057552138 0  0.9818707849053143 1.165603626132254 0  2.0086489901463 1.243134585689553 0  1.934584460420609 2.374094051915812 0  1.798434376789567 2.38671361912528 0  1.206314791201715 1.382064292497919 0  0.6333752893366955 0.7023738550008095 0  0.7796219811205605 1.42573253164258 0  1.564399711917382 1.026040828857629 0  0.3385416666666666 0.4889012896825397 0  0.1041666666666667 0.390625 0  0.989112246382566 1.543537365516289 0  2.025724425454636 0.9846960595520872 0  0.6602885475034063 2.086117390485779 0  1.607130551925032 1.267198646640915 0  0.1317864544877056 0.8896173683400176 0  1.755387840017567 2.230364320056445 0  1.301540702984401 0.1216289692748247 0  1.433170657577442 0.3331052752740999 0  1.500459610550388 0.113513924782439 0  0.6494291520606965 1.029586599619295 0  1.010146149868299 0.794897284196169 0  0.3700844198238017 2.235390157870766 0  0.3360891767780704 2.36656279435396 0  1.876856241037701 1.437150669863757 0  1.778674102957329 1.245979347269706 0  0.5472829890977179 0.1005517127039925 0  0.4669074189005698 0.3416784232954367 0  1.472765289289269 1.850899166481903 0  1.555853593327178 1.608452097912802 0  0.6708955559113426 1.646561631116984 0  0.8164699620322933 0.5924479455478063 0  0.3167738989468366 1.758696809749795 0  0.2788007305565096 1.605499483471246 0  0.7821720982350511 0.181524936294752 0  1.376812251214195 2.313340247908297 0  1.785652202614777 0.5962261755537186 0  1.761467296310972 0.4679567244718574 0  2.2265625 1.8359375 0  2.3828125 1.9140625 0  0.5279531607054191 2.071552361614785 0  2.397573269551114 0.234375 0  2.383578172599618 0.3589298466020009 0  0.1024267304488855 2.265625 0  0.1164218274003825 2.141070153397999 0  0.2696857594953064 2.135405441512016 0  2.164961300137334 0.1375322943529536 0  2.137757548369486 0.2724194778647587 0  2.238873711826398 0.3626419179496562 0  0.1001414910226386 0.234375 0  0.2176339285714286 0.3478422619047619 0  0.2503620791333544 0.1061694061057066 0  2.336445461915368 0.1250451055247424 0  0.2154004640409726 2.3918124
[...]
<PointData  Scalars="f_16-1"> 
<DataArray  type="Float64"  Name="f_16-1"  format="ascii">4.9914481567979387e-04  1.0819443359432118e-08  5.9684763007092083e-08  8.2685720659626772e-04  8.1178491646057501e-08  3.4384021534847439e-06  5.4313786823701263e-04  5.6548060447575552e-04  1.1678920352499328e-03  5.5549630040680376e-04  7.7132282458934424e-08  5.0499596684604501e-04  5.6348854133509579e-04  5.6054407253356363e-08  7.6691403342569414e-08  1.9639800378802729e-04  9.4385901669763927e-04  1.4620286075913106e-06  6.0167229999505628e-04  2.2678725369069020e-04  4.9335729349273309e-04  1.1465554225185142e-03  1.1121463417550976e-03  1.3045943301106047e-03  9.9556499480848602e-04  5.6845244662360854e-04  5.9695795839524233e-07  5.7246557532485240e-04  1.0106310764674095e-06  7.2654881994147671e-08  5.5688304122960284e-04  1.6593733965026826e-04  9.7622048288997928e-04  1.0885020456909429e-03  1.7042153596551803e-04  1.1805104029419941e-03  8.0064035522716965e-08  1.3880280845151027e-03  1.0334665242872089e-03  2.9641252502353324e-04  5.4463398343669130e-07  4.0843193145034568e-05  4.8014374153532328e-08  5.6321123074951406e-05  5.4268610140140378e-04  1.0551096679531657e-03  5.9491245061162675e-04  1.8466052816619909e-03  1.1649495490280929e-03  7.9277590248588763e-08  8.2508231816265300e-08  4.9746081862658571e-04  7.0561317306198854e-08  1.4261206065055750e-07  5.6532627096628630e-04  5.6538517643264471e-04  5.0843419132430502e-04  5.7414639474271577e-08  5.4917858684924898e-04  6.7929349171703447e-04  3.9037589907771563e-05  8.3862823937405300e-06  7.3174393058464870e-04  7.3567033752416770e-04  1.3485327832292932e-03  5.6543770091873127e-04  6.9382830994188895e-04  1.4579495757273162e-07  5.4869721290690609e-04  1.1245585315652783e-05  2.8791135195606836e-04  8.4836112625499640e-06  5.6513827107493254e-04  3.0877796551475518e-03  1.5051708603447988e-05  7.2825530705110527e-04  5.0762232088515807e-04  9.4261981905861803e-04  1.1545074285076915e-03  8.2281827730418973e-08  2.5120948662253536e-04  1.0847474905248017e-05  1.5119859236760341e-04  3.6023098470576891e-05  9.1875948235407005e-08  6.4078709262148390e-08  6.7179132128911080e-08  5.6452766229167940e-04  5.5952236879420515e-04  5.4011595626721393e-04  7.4102605323565416e-08  7.8704510107763156e-08  7.4486512550914284e-04  1.9246392668101494e-06  5.6109876570594873e-04  8.3515139524052413e-04  5.6562631952422474e-04  2.8863354492200278e-05  6.8401421187367858e-04  5.3153039309587074e-04  1.2889529455802258e-03  1.2224051326806297e-03  5.8624730877718809e-04  6.7904593538690473e-04  2.8706683352177101e-07  2.1153202683247374e-03  5.6449626926550361e-04  1.2929898555823279e-03  1.7614643132572651e-04  8.1090613984148281e-04  5.7973844723327667e-04  5.6544373458248653e-04  5.7957056664367399e-04  1.4982485350980260e-03  1.0461297916743773e-03  1.5918118539889293e-04  7.9861293741652687e-04  1.4136715086463787e-05  1.2017136179686323e-03  4.4450454530892077e-04  6.6095761669857664e-04  5.3633666427201803e-04  1.0476244168503319e-03  1.5086615923678305e-03  1.7943212235100738e-05  7.2191181112756973e-04  2.0692484029277433e-03  5.9040742461935925e-04  7.8328776807306242e-04  7.9300918897015154e-08  7.2649011547438151e-05  9.1120937214089466e-04  7.3996216861067126e-04  1.1132371658076316e-07  7.6772070047145798e-08  1.3317804822404313e-03  1.0522809169237913e-03  7.3368938483763576e-04  1.2669698201397974e-03  1.7306470678597548e-03  2.1056875561149336e-07  1.8393172825921072e-07  8.1993988815105505e-08  8.7469300062751884e-08  2.3011748092502363e-04  9.8151426077561257e-05  9.6526497520327964e-04  9.2767869289716524e-04  5.6387207143507095e-04  7.2116435535796301e-08  8.6308672980334912e-05  1.3502380637774945e-03  8.2632429268891406e-08  1.1230938818793099e-03  6.1998966839536297e-04  1.3963517741105828e-03  1.1297433571061802e-06  7.5604367835608009e-08  7.8202057818194582e-08  5.9218549846160432e-05  6.1201337635611436e-04  9.8158794388401708e-04  1.5330217543675404e-07  6.5874371717192928e-08  5.8976720047655148e-08  4.9872861683051585e-04  5.2527657321493524e-04  5.6633837507134366e-04  7.1379197512006951e-04  5.7163228997180772e-04  1.3330199206413495e-04  5.1339516845299573e-07  8.3884336984754032e-04  7.2118741640994672e-09  5.9581646676651218e-07  6.5286483336374310e-04  9.5531182209586223e-04  1.5323224006390144e-05  8.0146607415871305e-04  1.0242234168392134e-03  6.1897903144965036e-04  6.4863548456526297e-04  6.0632256999875920e-04  7.7570339982983634e-06  5.0595587802433921e-04  4.9915137948635942e-04  1.2250622040819840e-05  5.1851066975815759e-04  6.4158732596313901e-08  6.4439643496060906e-07  7.4422580606251036e-08  5.6074538063653073e-08  8.0184877288152539e-08  6.8005402517270443e-08  5.1415983147548247e-04  5.6546904088059272e-04  5.6504063941874359e-04  5.5978990141708495e-04  9.5187323156095208e-05  3.5597972598872674e-04  4.2822383716794557e-04  5.6541925532453631e-04  9.0141011219959397e-04  8.3048946232974926e-04  5.6669723110482995e-04  5.7258364641256604e-04  5.6277520022763575e-04  5.6259486482202533e-04  5.0271753366341399e-06  9.3965590549223172e-04  1.3020130162842635e-04  6.2912854777536788e-04  4.1189018323122304e-05  8.4510995175664670e-06  1.2443484982601553e-03  1.7920512117919694e-03  7.9251028758590407e-08  1.0594007082210650e-03  8.9472614119020649e-07  1.1252455029052415e-03  8.9152952590008664e-06  5.2963068512819876e-04  2.3607561495348067e-07  1.9987348083190743e-07  5.5010871836245210e-04  1.0590343931408113e-03  9.3822057681290660e-04  5.9694352606121787e-04  5.2286542506394077e-06  1.7346167603540609e-06  1.2880562995919330e-03  8.0516759131932486e-04  1.0454112485117301e-03  1.3208515806210875e-03  1.1005574240218865e-03  5.3699398807323948e-04  9.0200711843120858e-08  4.0891620881719815e-05  2.1198291485696037e-06  8.4032323466818717e-05  5.5001117244732269e-04  8.6872152111249780e-04  5.6436343795864203e-04  2.9922572692082239e-04  2.7640688343934819e-04  6.7433572971494567e-04  1.8532461651763727e-04  1.2689396232598517e-03  1.5521726082624147e-03  5.5734299763789798e-05  1.0863972454763342e-03  9.7933946740936541e-04  1.4215212754976453e-03  1.6985891781945216e-03  9.1894993772730993e-04  1.2425293601949636e-04  2.7252949011855512e-03  2.7678030713308038e-03  1.1040879553208848e-03  4.8074167618966234e-06  5.5981643092468990e-04  3.9754192278124319e-04  5.7849403116399872e-04  1.1027833834207476e-03  8.1487588171572938e-08  1.1214087918923152e-07  7.9731920311410303e-08  1.5430236718416731e-03  5.1580218262793490e-04  5.4564518428038510e-04  5.2440039170239562e-04  2.9002867054322154e-04  1.7188753633632305e-04  2.2323948412305812e-07  3.2154836618877169e-04  1.2693093244850716e-03  1.1590827453953204e-03  6.1279212573952710e-04  3.8958288715383929e-04  5.6504517166796567e-04  5.6562257812162598e-04  4.0274737711858778e-07  6.8351290149755374e-04  2.3400063980994007e-07  9.7563749311143023e-08  4.0303217445588453e-04  3.1305666045844448e-04  5.5888041619177764e-04  6.1567113152672657e-08  6.1881726976274898e-08  5.4032578777277250e-04  5.5399112172265961e-04  5.5429870350381439e-04  7.0889785249482857e-08  7.1566719917857417e-08  6.8403636097190107e-08  4.3815096685337096e-04  3.5268093529579815e-03  4.8073713693488968e-07  6.4975253784619750e-08  5.1790668208799985e-04  5.8517123880221791e-04  2.6159669197298434e-07  7.8278913546083634e-08  7.5282408034687678e-05  1.3465348355322448e-06  4.2751325736281523e-06  5.6136293561778305e-04  7.5621242133456276e-04  1.5397502127411651e-03  5.6238130951280301e-04  7.5828905572468934e-08  6.2475062452543361e-08  7.5010438239386012e-08  7.2481247160888457e-04  6.4550628381907058e-04  5.7735446368416049e-04  5.6483770396234122e-04  2.3389316595244333e-05  1.8168689292088607e-04  7.3686490637008201e-04  7.8938809140593558e-08  1.5039549658137129e-03  6.7809883239661260e-04  7.7714199492882180e-04  9.2845030581981209e-08  8.8971469345232885e-08  2.4654161885355298e-06  7.2342659585851313e-04  5.7272249869566290e-04  3.8138519039803129e-07  5.8245303760878211e-04  8.4121874399915083e-04  4.6539062695668225e-04  8.9248948403599293e-04  7.6315725671944833e-08  5.5055176330860332e-04  5.6640081775643418e-04  5.6551219778394829e-04  3.2418644553927518e-05  2.5194406944111529e-05  1.6524212560420548e-03  7.8762225420628524e-08  7.7740653750342423e-06  1.1782969322598304e-03  7.7425623399050327e-08  8.2244104614163544e-05  1.1625140654495381e-03  5.5704396275453073e-04  5.2237983984804387e-04  1.4376485466967147e-03  1.2183045196627470e-03  2.3685222355546210e-03  2.2266981934813230e-03  1.0743885652793817e-07  5.6527546573848951e-04  5.6559089862303063e-04  9.5357888008390686e-06  2.2850711334997382e-06  5.9278471318656759e-04  5.1593662549679242e-04  8.6038321491000683e-04  3.1130289729075164e-04  8.3106721623202044e-05  2.9367753664519359e-06  1.0865538197069610e-03  8.3411484787374300e-08  1.2019046463347650e-03  5.8114697518976775e-04  6.2971103402076800e-04  1.0465393247487548e-03  5.6545304689643579e-04  1.2985878479808852e-04  1.0073675587056866e-03  1.3186066488083844e-03  1.2976777061540459e-03  4.4699139015383588e-04  6.7237729878487525e-04  1.7711190276401268e-03  6.2141192960828715e-04  1.4242795500408517e-03  1.0348371789997307e-03  4.7547054207152432e-07  1.2055046382474968e-03  8.9947171046040578e-04  1.2444004010635419e-03  6.9862176038740134e-04  6.0695821112858336e-04  5.7927491854568051e-07  9.2616176066341214e-04  9.9953763096765769e-07  1.2870420041520258e-05  5.5345296535399885e-04  6.5503228062710917e-04  1.4826719049329553e-03  7.2150314298797136e-04  1.0431813781436778e-03  8.0901681066505003e-08  1.8040001848859989e-04  1.4193412013266155e-03  9.8157153516412036e-04  5.6684192076162634e-04  1.7551369094733216e-05  4.0771508236742600e-06  1.3890343725894512e-03  2.3805675029568114e-05  7.8419620562911229e-04  6.1764509182290041e-04  1.9283512072221318e-03  6.2289591206078493e-08  3.6243034503132263e-05  9.0025478500791351e-05  2.5902273338868060e-04  6.9842700403448075e-08  5.6914677299943982e-04  5.7596245444649580e-04  2.9096679501238614e-04  2.2773531360441484e-03  1.1128632329500821e-03  5.0116328189025474e-04  1.3965367063133341e-03  1.1272978121056436e-03  9.3931628764966173e-04  9.3616359393723018e-04  6.8282696952687077e-04  6.3737382199153018e-04  5.7017163379091500e-04  8.6360405357819442e-04  1.1957465275942943e-03  1.1073106697886957e-03  8.1431386721313823e-08  1.4209027403219569e-03  5.2073763638363238e-04  5.4010431864905876e-04  7.3869793058739368e-08  9.1957925650322239e-08  5.6876500213817033e-04  8.0399015649292542e-08  1.0667202813418892e-03  1.0656120277441683e-07  6.8449666040451594e-08  5.6499129196551669e-04  9.9301725628994750e-04  7.7440976329999435e-08  9.9896693919200802e-04  1.8118756287333587e-03  1.1496120948042859e-03  1.1433395430657904e-05  7.7173132659787416e-07  6.8435363600618818e-08  1.1906721795805701e-03  5.6693720957017881e-04  7.9202425599012363e-04  4.6704897018250689e-04  2.6176792217758700e-07  5.1102708794477641e-04  2.5906396330711417e-04  1.8649367252256601e-03  1.4736762003291779e-03  5.7541772161293688e-04  1.3140678879716113e-03  1.1679744759532711e-06  5.7048566817770817e-04  7.2514722045274634e-08  7.3358720751779399e-08  5.9071509746511672e-04  5.5266034034529943e-04  1.0270588940138516e-03  2.4297039492172851e-07  1.2489233924866082e-03  7.5526028889826660e-08  3.7981131338271457e-05  1.2939939040340002e-04  1.6496513908852508e-07  2.2473711223185107e-07  9.9010158596314042e-08  1.1878347058253929e-03  1.0107314453132144e-03  1.3668848956025679e-03  1.2505866318953577e-06  4.9808508210881378e-04  1.1449445596653988e-03  1.0629305236363436e-03  5.4046999685342263e-04  8.6568189114631243e-04  7.3578589522209391e-04  2.6869175542268794e-04  1.3127248444872340e-07  1.2391997033506703e-03  5.5538460963789216e-04  6.9890930108747738e-04  2.1619492464965717e-07  3.1242656644010243e-04  8.1984804656318267e-05  8.5354165930261598e-08  5.6256785410064410e-05  7.4794556369817800e-05  1.1783679336469970e-03  5.6317562367139151e-04  9.2553540155658357e-04  1.1144038272090501e-07  1.5927094841347870e-04  9.6178039710871350e-04  6.5910265558205467e-08  5.5602754416791078e-08  5.9678195419527563e-08  5.3189665609949593e-04  8.9672141786607065e-08  5.6446820621423117e-04  5.6468018726884000e-04  1.4657698375181456e-05  1.0961794339652902e-03  3.3267621844067017e-06  8.2836475592806770e-04  6.0648629130349514e-05  9.1941561893977653e-04  3.1387283451525174e-05  5.6449255584222738e-04  5.6213250607428059e-04  5.1373750126212979e-04  5.1753527393142340e-04  8.2771919894593668e-08  1.6361441328975514e-06  8.5031169406314157e-04  1.0609878271033506e-07  5.5231293352329134e-04  5.9867472598586484e-04  7.4444340469013626e-05  3.0114433562666285e-05  5.9462370205354861e-04  5.5994535020424034e-04  4.7483214731424843e-04  8.4020725804353846e-08  8.1727428764636803e-08  5.8089954433535660e-08  1.4779673495829650e-06  3.2208919710801056e-07  3.7667727736542689e-06  2.0398005212802077e-04  3.5954891396098400e-04  1.3400541104050591e-04  5.9487934736553734e-08  6.2743112653352272e-04  7.2992822600320850e-08  6.0828865774079186e-04  6.8702873833758032e-04  6.0440243853732099e-05  9.9964376321303957e-04  8.7822019013087467e-04  2.6115418972759923e-04  5.7003890612720260e-04  7.9325883926748139e-04  1.4295441940388967e-04  1.7540309092322378e-04  6.5220282912586589e-08  5.5007971072027265e-04  7.1033653069846943e-04  1.4715312495147493e-05  6.2567184644963852e-04  5.5621026892627612e-04  6.8190689314042311e-08  9.9319139419411380e-04  3.0481690124503366e-03  1.1933062813187874e-03  8.4443824977569403e-04  6.1578214567928543e-08  6.9866383585009452e-04  5.6518696220855271e-04  6.1419707135272895e-08  5.3074877897087440e-04  8.0243549224502422e-08  5.5613719612264031e-07  8.9807128948551549e-04  7.5812833869029624e-04  1.2183180102568430e-03  1.0829978069556820e-03  4.4894026841771578e-04  7.7339239522919326e-04  5.9787627332747026e-04  1.2645615454474049e-03  1.1747089777912433e-05  1.3457662514374556e-07  6.3415070756581485e-04  1.2533653024003114e-03  1.4309533411677688e-06  7.1887325453845725e-06  2.6510200393609177e-04  1.2564814218131619e-03  6.4015940482042366e-04  7.9807070675822053e-04  1.2273804656182767e-03  5.8644058910796307e-04  5.3813676618109170e-04  7.2972998574449441e-06  4.6447769836779804e-05  5.4116813041104482e-06  7.6489848553559753e-05  5.6665951535167481e-04  5.4489449964431498e-05  1.1690777234925486e-07  3.8782130736910619e-06  5.3697045070384133e-04  6.4413350919689772e-05  9.4227036390545887e-07  2.7518583255121314e-07  1.3966159579683125e-03  1.2789580943953340e-03  3.9781348143613440e-04  5.7028667901718431e-04  5.5473863845795293e-03  1.0509285676186671e-03  4.8062367211520733e-06  8.2286962722553034e-08  5.5414803494976950e-04  6.7814699277715761e-08  6.4717690900079246e-04  1.0116649972575988e-03  1.1016729044455512e-03  3.8938946041883009e-04  6.3692837750351904e-04  2.6640533401758766e-05  6.6204136668182925e-04  5.7964094131171626e-04  1.0478692808656644e-08  1.4489365236540972e-08  8.3064166599276627e-04  8.0671093631943583e-08  8.7166873502864312e-04  3.4083518554370117e-05  5.5478470640774968e-04  5.8791761067122942e-08  1.0589487816937537e-03  1.5037172778089756e-03  2.5673232372971888e-05  2.9052336595440816e-04  7.9834288416624722e-04  2.0893426665850842e-06  1.0023613556549959e-03  1.9991654076134479e-07  6.9563730772390922e-08  7.3989196680999241e-08  1.5719080902557451e-07  7.6471482053038607e-06  2.5939494916280277e-03  5.6530814164375710e-04  5.6546021874633045e-04  5.7279234308285588e-04  6.8446922373141300e-04  1.1097432029776415e-03  7.8134080099958546e-08  1.0080393073585612e-03  1.5403459200325723e-03  1.2371128058529797e-03  2.2870190776071427e-04  1.5218131447650737e-05  4.9507296993027467e-06  5.5530117748114481e-04  5.6556561495012801e-04  6.2576642290292821e-04  5.0387932260439165e-05  8.1601614288797122e-08  1.0219879554573439e-03  5.0715545012811427e-04  1.0639134805923527e-03  5.1163076642002240e-04  4.9985645164964392e-04  5.6268461517327249e-04  5.6527231916966944e-04  5.0606431599157045e-04  6.3406464903127370e-05  7.7410482659391966e-08  7.8791378376622535e-08  1.5110110320691933e-06  6.3473267115057992e-06  2.3103419380667386e-05  5.6538880528198758e-04  5.6547125196289500e-04  5.6548037675515088e-04  5.2919772763920629e-04  5.6233726848670031e-04  8.2572699840904612e-08  7.5719952431309233e-08  5.6229937677284420e-04  4.9765229014110972e-04  2.4494171846963976e-08  5.3797626854483851e-04  5.8115115136027133e-08  7.2094030083330532e-08  7.9790223033554155e-08  4.1365330078199000e-06  3.8731517280679291e-04  8.8419794555013068e-04  6.3572211392482869e-04  7.9250592702384396e-04  8.8890383036665914e-04  5.6543810351628151e-04  6.2974465812092701e-04  5.4592980260866639e-04  1.3651992549555350e-04  4.4335214618039162e-04  5.6695293271410641e-08  6.1944569540977962e-07  6.7659203758973672e-04  1.0060424249762048e-03  5.1796874655832693e-04  3.4441131012297820e-06  5.6897894724508254e-04  1.0226746578667152e-03  2.1164653250817914e-03  1.7032017997782084e-03  2.8087096259328239e-04  1.0802273239466725e-07  1.6514855830666326e-03  6.1500228640546111e-04  5.6040888499912561e-04  1.2665295388660245e-03  2.6416312390903140e-05  5.9118145507690767e-04  5.6551865568899647e-04  5.6539624452288557e-04  5.6536402829310620e-04  5.6582293997764618e-04  7.7697580133629740e-04  1.6914763084148695e-03  3.8855838794141409e-06  1.2761184498946813e-03  6.6257010664844129e-04  1.9965022601076524e-05  1.9456710192752988e-03  1.9663408288309365e-05  5.6562625245495403e-04  6.5031005217237479e-04  1.4383040980317356e-03  8.2234617296678472e-04  1.2474175525018073e-03  5.9966497294688080e-04  6.8097137554986875e-07  1.6290906082642542e-03  1.6174480681472644e-03  7.7209766891223304e-08  1.1517021013148396e-06  1.6188349485891675e-03  4.5714313549600716e-07  1.0826579601804859e-07  9.6906699549865756e-04  8.9032667122725752e-05  4.3669642912819265e-04  2.7909962047275959e-04  4.9124847514744852e-04  1.5921013701145930e-04  5.8191026538437771e-04  5.9030535925386532e-04  1.0530825971737517e-03  1.7350183708299301e-04  1.0246955763179301e-04  1.3922385155180512e-04  7.0549327077255096e-05  5.5622246153670240e-04  5.6548005112069572e-04  7.6105581762436097e-04  5.6768313686578436e-04  7.8119980466531778e-05  5.6430269887504131e-04  5.6340979150512898e-04  6.9768900184297145e-04  1.6245516480983200e-04  4.1825177467075873e-07  1.4530246728571466e-07  5.5843643287083352e-04  7.4004723729868230e-04  5.6669510473487299e-04  5.7087267069487306e-04  5.6630351239004282e-04  7.5856737516541038e-04  7.0527988870750986e-08  5.8925774895306269e-04  6.1713838729268765e-04  5.4857636602970183e-04  5.5161738833543912e-04  5.4388650979005754e-04  8.8103471644580291e-04  8.1067611942813120e-04  8.5238330770848916e-08  1.1414329657133240e-04  9.5077997952823553e-08  4.5169221369964542e-05  9.0815669565641314e-04  7.8751102142859302e-04  5.7006710400589781e-04  5.2712738636968457e-04  7.4705954507812332e-08  1.0057952616198149e-03  8.3117662811578049e-08  9.9595868302110855e-04  1.7255112064519570e-03  7.6224510127191809e-08  1.0555770425761475e-03  1.1658757046343071e-03  3.5275998855641052e-04  1.4999734751581665e-07  5.1013203916706440e-04  5.7930159583433093e-04  1.3605343188682103e-03  7.8219658945656600e-04  6.1035530328141705e-04  1.2310936156256877e-03  1.2275424901824149e-03  5.8024051335019687e-04  6.4601911629494114e-08  3.0841685252927423e-06  1.2343794680980736e-03  6.3398690083287532e-04  6.2168262329649019e-04  5.4053357968004555e-04  5.1593543362098897e-04  8.8946382788891141e-08  5.0835005610054020e-04  2.0747325257149237e-07  6.6985885441365094e-08  1.0951659642914936e-03  5.5592941350308879e-04  7.9304026847793618e-08  9.7519634949506310e-04  7.2854125270802947e-08  1.1303143498309957e-03  5.3800709839779812e-04  5.4732183920349676e-04  5.5328865240397013e-04  5.3506019129834778e-04  2.8764885969859