<?xml version="1.0"?>
<VTKFile type="UnstructuredGrid"  version="0.1"  >
<UnstructuredGrid>
<Piece  NumberOfPoints="6486" NumberOfCells="12696">
<Points>
<DataArray  type="Float64"  NumberOfComponents="3"  format="ascii">0 2.5 0  0 0 0  2.5 0 0  2.5 2.5 0  1.25 0 0  2.5 1.25 0  1.25 2.5 0  0 1.25 0  1.25 1.25 0  0 0.625 0  0.625 0 0  0.625 2.5 0  0 1.875 0  2.5 0.625 0  1.875 0 0  2.5 1.875 0  1.875 2.5 0  1.770833333333333 0.7291666666666666 0  0.7291666666666666 1.770833333333333 0  0.9375 0.625 0  1.875 1.5625 0  0.642361111111111 1.163194444444444 0  1.341594827586207 1.883979885057471 0  0.46875 0.46875 0  2.03125 2.03125 0  0.3626104797979798 1.513178661616162 0  1.381740196078431 0.4564950980392157 0  0.9375 2.172619047619047 0  2.172619047619047 0.9375 0  2.096354166666667 0.4036458333333332 0  0.4036458333333333 2.096354166666667 0  1.684027777777778 1.163194444444444 0  0.3418803418803419 0.8693910256410255 0  1.642742622813391 2.162164207604464 0  1.275619849389031 0.8465650753054845 0  0.9136284722222221 1.434461805555556 0  1.732437511238546 0.3406962303960658 0  0.9714402568595876 1.029779313093998 0  1.52281746031746 1.485615079365079 0  2.1875 1.71875 0  1.06819722569879 0.2997236128493951 0  2.136114211309524 1.303478422619048 0  0.3125 0 0  0 0.3125 0  2.5 2.1875 0  2.1875 2.5 0  0.3200021620376328 1.192323085056694 0  0.6738456129277992 0.8304377375553881 0  1.757891808928991 1.861952730357003 0  1.5625 0 0  0.9375 0 0  0.3125 2.5 0  2.1875 0 0  2.5 0.9375 0  0 0.9375 0  0 1.5625 0  0.9375 2.5 0  2.5 0.3125 0  0 2.1875 0  1.5625 2.5 0  2.5 1.5625 0  0.7448220909826522 0.3003573636608841 0  1.027298850574712 1.871151477832512 0  1.331260495098891 2.197262878816185 0  1.207917681892289 1.582765010956622 0  0.4339993447432606 1.801186844743261 0  0.6337298768939392 1.443093039772727 0  2.049851190476191 0.6826636904761904 0  0.6584821428571428 2.219122023809524 0  1.89575676467455 0.9798457973793544 0  1.437570562095628 1.059380588255917 0  1.502090052505845 0.6987070896496241 0  0.2040860661083546 1.705323965099331 0  0.2083333333333333 0.46875 0  0.5070952039991439 0.2211150679997147 0  0.6916302856529919 0.5813591430410241 0  2.265625 1.953125 0  2.2265625 2.2265625 0  1.886424081252096 2.243391360417365 0  1.40625 0.202164758520858 0  0.2269345238095238 0.2269345238095238 0  1.152730869673694 0.5225850378741401 0  1.885631899587912 1.312095130148776 0  1.614808884009367 0.9049784971014416 0  1.890095442220658 0.5126535558463003 0  2.323168682795699 0.46875 0  2.268811725689575 0.2304742875213018 0  0.6002389442105756 1.967426444210576 0  0.1768313172043011 2.03125 0  0.2311882743104251 2.269525712478698 0  2.03125 0.176831317204301 0  2.280262553344767 0.6954945504579233 0  1.979219539285994 1.809922269642997 0  2.336309523809524 1.09375 0  1.09375 2.336309523809524 0  0.9314042474388009 1.662973812215543 0  0.1634067999087722 1.40625 0  2.337090640094896 1.40625 0  1.141616997467638 2.069311773587991 0  0.46875 2.338939559681489 0  1.542440307908715 1.734944797244472 0  1.556713687786879 1.956977865354753 0  0.8264238995344066 1.975424467820646 0  1.466326331454725 1.275271369760862 0  1.655675324257095 0.5444159974393489 0  0.3385416666666666 0.6479255698005697 0  0 0.78125 0  0.5236073939200119 0.984090461540625 0  2.091665741047893 1.519793517904215 0  1.71875 2.5 0  0.5356538886262603 1.623137930505009 0  0 1.09375 0  0.1932884281517095 1.015625 0  0.8569313582417669 1.2198915584249 0  0.8876981284879677 0.8329884081524883 0  1.115618488474214 0.7219586973356271 0  1.186950366204949 1.043465130075318 0  2.057459118787237 1.110823087309335 0  1.830651283878689 2.049810069572418 0  1.689107969301489 1.367247437031697 0  0.4921048768039656 1.298643370653124 0  0.8213975694444444 2.336309523809524 0  2.03125 2.5 0  1.049729400480002 1.283723261332814 0  1.308101375801673 0.6489479469700392 0  2.5 2.34375 0  0.4968777175037714 0.7562964879736076 0  1.40625 2.5 0  1.501347663534097 2.307027627307738 0  1.602813712048603 0.1926218191360736 0  0.8393082906308107 0.463778306132633 0  1.682663349152719 1.598471865581041 0  0.7774174680851571 1.560004941327907 0  1.554204170364662 0.3898593897892066 0  1.842184459051087 0.186443880058197 0  1.358107417651776 1.696381759610015 0  1.18859291992392 1.77598670078022 0  0.1875331222687418 0.7609599743339348 0  1.339536743965101 1.422080365801479 0  0.7788179348750389 0.9955343414928611 0  0.9062978492805438 0.1919636509126373 0  1.256007360640958 0.3160320559396114 0  1.09375 0 0  1.174986727221844 0.1594990293443933 0  2.34375 1.796875 0  2.318026474511116 1.589177949022232 0  2.34375 2.5 0  1.672742954892153 2.332882724550692 0  0.2683637361947215 1.874801596909639 0  2.174770749820102 0.5581009131310781 0  1.443279522965991 0.8870068372898454 0  0.3385416666666667 0.3571428571428572 0  0.78125 0 0  2.060421048269335 2.314363248763811 0  1.088078737088509 0.8967352118723447 0  1.087825368444708 1.454931510884769 0  2.018308232129541 0.8548495425854904 0  1.943987311736842 0.3246298523011434 0  1.71875 0 0  1.85337849796276 1.144833312386208 0  2.3486328125 2.1044921875 0  1.407588788651747 2.042968789119587 0  2.336309523809524 0.865366648092144 0  2.34375 0 0  2.5 0.15625 0  0.15625 2.5 0  0 2.34375 0  0.1638044648294291 1.242263417405867 0  0.356216654757926 1.032569427322806 0  0.3188217956111817 1.355736727000647 0  0.5924956460852111 0.36112522004736 0  0.6594216488965849 0.1603472116132387 0  1.841804599497131 1.72214349266521 0  0.15625 0 0  0 0.15625 0  2.115898634821499 1.894570904464496 0  0.7821877980253907 0.7129993435924866 0  1.003820447087786 0.4516053462784233 0  0.477562948779147 1.138333049293613 0  0.719493678605015 1.305655360135975 0  0.9772457618587566 2.020350128938537 0  0.8764738248887107 1.826219722709673 0  1.254787875123819 2.339010653832026 0  2.343597354852534 1.249982759769001 0  0.78125 2.5 0  0.46875 2.5 0  2.5 1.40625 0  1.09375 2.5 0  2.5 0.78125 0  2.5 1.09375 0  2.03125 0 0  2.5 0.46875 0  1.40625 0 0  0.46875 0 0  0 0.46875 0  0 1.40625 0  0 1.71875 0  0 2.03125 0  2.5 1.71875 0  2.5 2.03125 0  2.005424054645407 1.653223486966518 0  0.1538730573856537 1.559850281736677 0  2.33984375 2.33984375 0  1.166539506212474 1.922878979538754 0  0.3914885633949916 1.65887232812171 0  0.5795503163042564 1.766243562569382 0  0.399533125920212 1.946786875081388 0  0.7866324979014098 2.127719094551316 0  0.3654683023546834 0.1495701132219454 0  0.1527388747131078 0.6116379440619215 0  2.013737577140188 1.391056634712135 0  1.17635437372994 2.213329084238133 0  1.737118141866284 1.010577140843115 0  2.200707118087222 1.164723314085963 0  1.697018908736685 1.993548551451517 0  0.5387621649009668 0.6070503962352419 0  2.032805785855952 0.5330427622570983 0  1.082699501358059 1.667818725183932 0  1.503819781540653 0.5468420196858188 0  2.015409142866072 2.175941657590429 0  1.752057611265444 0.869642097111018 0  0.612251684107783 2.356045720700959 0  1.902817102342857 0.6607642211999982 0  2.159616561739693 0.7867739969338844 0  0.5120038350106624 2.197302352398502 0  1.888200216011548 1.919501662489862 0  1.495909909726654 2.16028358757309 0  0.489139876703609 1.443203008943564 0  0.8819175670410521 0.3301172743913011 0  1.882591144370812 0.8155965192707721 0  1.133979796994841 1.172526771862882 0  2.206217447916667 2.084147135416667 0  2.20361328125 2.36279296875 0  1.395746985657004 1.556054166359645 0  1.704383111516207 1.734750450338683 0  0.9575737847222222 2.36274223823052 0  1.035150984253136 0.1302833343179028 0  1.383966125325753 0.7651479963479179 0  1.64003252158672 0.6824316405528895 0  2.22550785055421 1.487078576356817 0  1.760964431499756 1.48495222505201 0  1.276460980673788 2.004207003584658 0  0.1341477688427096 1.828777507920502 0  1.542261434180652 1.155296658359034 0  1.334627911613854 0.9696897472490321 0  1.30794231473696 1.119420615785191 0  0.7028260459857245 0.4438906910721139 0  1.625757433094055 1.84268057552138 0  0.9818707849053143 1.165603626132254 0  2.0086489901463 1.243134585689553 0  1.934584460420609 2.374094051915812 0  1.798434376789567 2.38671361912528 0  1.206314791201715 1.382064292497919 0  0.6333752893366955 0.7023738550008095 0  0.7796219811205605 1.42573253164258 0  1.564399711917382 1.026040828857629 0  0.3385416666666666 0.4889012896825397 0  0.1041666666666667 0.390625 0  0.989112246382566 1.543537365516289 0  2.025724425454636 0.9846960595520872 0  0.6602885475034063 2.086117390485779 0  1.607130551925032 1.267198646640915 0  0.1317864544877056 0.8896173683400176 0  1.755387840017567 2.230364320056445 0  1.301540702984401 0.1216289692748247 0  1.433170657577442 0.3331052752740999 0  1.500459610550388 0.113513924782439 0  0.6494291520606965 1.029586599619295 0  1.010146149868299 0.794897284196169 0  0.3700844198238017 2.235390157870766 0  0.3360891767780704 2.36656279435396 0  1.876856241037701 1.437150669863757 0  1.778674102957329 1.245979347269706 0  0.5472829890977179 0.1005517127039925 0  0.4669074189005698 0.3416784232954367 0  1.472765289289269 1.850899166481903 0  1.555853593327178 1.608452097912802 0  0.6708955559113426 1.646561631116984 0  0.8164699620322933 0.5924479455478063 0  0.3167738989468366 1.758696809749795 0  0.2788007305565096 1.605499483471246 0  0.7821720982350511 0.181524936294752 0  1.376812251214195 2.313340247908297 0  1.785652202614777 0.5962261755537186 0  1.761467296310972 0.4679567244718574 0  2.2265625 1.8359375 0  2.3828125 1.9140625 0  0.5279531607054191 2.071552361614785 0  2.397573269551114 0.234375 0  2.383578172599618 0.3589298466020009 0  0.1024267304488855 2.265625 0  0.1164218274003825 2.141070153397999 0  0.2696857594953064 2.135405441512016 0  2.164961300137334 0.1375322943529536 0  2.137757548369486 0.2724194778647587 0  2.238873711826398 0.3626419179496562 0  0.1001414910226386 0.234375 0  0.2176339285714286 0.3478422619047619 0  0.2503620791333544 0.1061694061057066 0  2.336445461915368 0.1250451055247424 0  0.2154004640409726 2.3918124
[...]
<PointData  Scalars="f_16-1"> 
<DataArray  type="Float64"  Name="f_16-1"  format="ascii">5.6304383951330387e-04  1.4710819482658042e-08  7.8123340840364488e-08  9.2260218857352736e-04  8.5080532043688784e-08  3.4654190101988084e-06  5.9738247439999599e-04  5.6548908093146332e-04  1.1679005250185544e-03  5.5550019359134652e-04  8.1023664487588332e-08  5.6342575929172801e-04  5.6547345604792266e-04  7.8027371102775163e-08  8.1761254193191984e-08  1.9918734021000202e-04  1.0060682779136779e-03  1.4665888007427811e-06  6.0227807230933792e-04  2.2679114561087723e-04  4.9346199116187235e-04  1.1465619220721434e-03  1.1140115235549321e-03  1.3045982215172285e-03  1.0014091519493968e-03  5.6851591411631131e-04  6.0087757455885466e-07  5.8389990259624604e-04  1.0207816398088998e-06  8.0741268842803660e-08  5.6539777366138542e-04  1.6594242928427778e-04  9.7622446367533699e-04  1.1007631027269446e-03  1.7042544580234427e-04  1.1805497092882418e-03  8.4536912284719772e-08  1.3880323027779433e-03  1.0335254269413952e-03  2.9694241573495023e-04  5.4852627507166623e-07  4.0857815327198170e-05  5.1905750290851085e-08  5.6325014453028537e-05  5.6542401476279887e-04  1.1330360465698283e-03  5.9491964609190053e-04  1.8466092005635043e-03  1.1664451717728452e-03  8.3338983722016265e-08  8.6399845793150614e-08  5.6293437635638937e-04  8.0034475198220470e-08  1.6535037733477333e-07  5.6533044694131670e-04  5.6549415170288120e-04  5.6590227274630088e-04  7.7740793736477623e-08  5.6517156585821006e-04  7.3636319777232865e-04  3.9217516915206698e-05  8.3901737871140407e-06  7.3328234076482026e-04  7.4949124413946236e-04  1.3486821169118404e-03  5.6626905204690010e-04  6.9386972471609167e-04  1.5329585719175707e-07  5.6581203281433259e-04  1.1251042943172453e-05  2.8791549322392267e-04  8.4875826032757528e-06  5.6551548426963378e-04  3.0877835465612778e-03  1.5055599979961928e-05  7.2825919863847934e-04  5.1174288660849835e-04  9.6654453970221440e-04  1.1759971046982147e-03  8.6219449261026411e-08  2.5121337799896971e-04  1.0851368460677986e-05  1.5120956707773213e-04  3.6027186238648465e-05  9.7312370956035126e-08  7.8972359991195142e-08  7.9395245158300074e-08  5.6762879982335732e-04  5.6541301976893070e-04  5.6489528972933063e-04  8.0865369413505145e-08  9.2299929903435210e-08  7.4595238368128350e-04  1.9412447220474402e-06  5.8996366752873790e-04  8.3546734730798305e-04  5.6565052841516320e-04  2.8904573693763031e-05  6.8997631832272519e-04  5.6460197560197407e-04  1.2894865509467484e-03  1.2257110936340569e-03  5.8912585900846724e-04  6.7905456867639927e-04  2.9124482021667835e-07  2.1153241613532593e-03  5.6450021426845075e-04  1.2929940921656928e-03  1.7621755789604503e-04  8.6876197752512423e-04  5.7990960057279341e-04  5.6544879555231443e-04  5.7957510526965739e-04  1.4982564648404310e-03  1.0461337004741449e-03  1.5918507967372056e-04  7.9861716728737888e-04  1.4144779638451162e-05  1.2081781482369991e-03  4.4452085604549150e-04  6.6097154887027095e-04  5.6670420043054641e-04  1.1137720609587600e-03  1.5086742969025462e-03  1.7947115820429076e-05  7.7374028820026766e-04  2.0692523056354099e-03  6.4583569609456327e-04  8.0937650641678763e-04  8.3418396808702423e-08  7.2652902991735634e-05  9.1136850848042765e-04  7.4009067104849704e-04  1.1535886375339972e-07  8.1818381758516407e-08  1.3321570715999331e-03  1.0530974127489631e-03  7.3369330124786638e-04  1.2670021519163542e-03  1.7306512562226511e-03  2.1446029174021367e-07  1.8783186494020349e-07  8.5887139981650472e-08  9.1364159924106293e-08  2.3137373170062334e-04  9.8343588394534068e-05  1.0521788733863573e-03  9.5824941242956521e-04  5.6549796017138466e-04  8.2439761368084449e-08  8.6312619684552759e-05  1.3502419551569751e-03  8.6523848415806772e-08  1.1570543394388954e-03  6.1999359525487523e-04  1.3964008175542039e-03  1.1366099277613708e-06  8.1487482677393406e-08  8.2563789542703379e-08  5.9224150613074151e-05  6.2439492687887618e-04  9.8748226729739280e-04  1.6947172885107127e-07  7.9163224110739153e-08  7.8005258583209063e-08  5.6301958207498164e-04  5.6431711193874045e-04  5.6634695676996524e-04  7.1379652991364004e-04  5.7164994315879502e-04  1.3330588344497528e-04  5.1728655116230425e-07  8.3935063631584354e-04  1.1103250286901528e-08  5.9970784299526405e-07  6.5523093301776616e-04  9.5531571598479238e-04  1.5327115829833464e-05  8.0147193810214490e-04  1.0242383060244987e-03  6.2292872725561957e-04  6.4961796230230014e-04  6.3429110369888882e-04  7.7766996081847233e-06  5.6394244623552824e-04  5.6303932581518721e-04  1.2299086891658005e-05  5.7438203089163063e-04  8.6127024923357004e-08  6.6724015516718749e-07  8.0956949848093328e-08  7.7526582269724151e-08  8.4130114437069162e-08  7.1896778713238495e-08  5.1416372288095333e-04  5.6549396175321562e-04  5.6549106257699718e-04  5.6541591001223234e-04  9.5919305135832577e-05  3.6517326675536313e-04  4.2847954290329963e-04  5.6552477238489430e-04  9.4884896868873553e-04  8.3279533865063639e-04  5.6691648484444074e-04  5.7318427156984270e-04  5.6558290776919751e-04  5.7141856675113872e-04  5.0310667128252730e-06  9.3965979821003466e-04  1.3022242696548246e-04  6.4302340505360887e-04  4.1193487162769608e-05  8.4630177380261783e-06  1.2484155078800927e-03  1.7920551037160465e-03  8.6333660978274265e-08  1.0597292649673928e-03  8.9870517537823092e-07  1.1412024748856577e-03  8.9197431326457776e-06  5.6465630517324396e-04  2.4160872414138773e-07  2.0976791626773956e-07  5.6530814088806721e-04  1.0614720750078608e-03  9.5032039517517974e-04  5.9698098568793448e-04  5.2325457461951437e-06  1.7400152167424904e-06  1.2880623904287937e-03  8.1517620683425136e-04  1.0946276746977594e-03  1.3209627860162009e-03  1.1011199649699488e-03  5.7102394453504353e-04  9.4092730345213036e-08  4.0895536522174541e-05  2.1239901813755212e-06  8.4094116486072116e-05  5.5006113549038228e-04  8.7283514251421243e-04  5.6548524614793299e-04  2.9923052275041792e-04  2.7641084750807857e-04  6.7434038210374551e-04  1.8532850791667217e-04  1.2701962244331972e-03  1.5521788384055719e-03  5.5743440877088815e-05  1.1273101412027609e-03  1.0211349007484610e-03  1.4215456133283813e-03  1.6985930724462278e-03  9.1898886797876127e-04  1.2425704628913928e-04  2.7252987926232059e-03  2.7678069627137284e-03  1.1041993122831322e-03  4.8145993001738451e-06  5.6721079361783373e-04  3.9754955507221039e-04  5.7849808407005646e-04  1.1214244254138294e-03  8.5396750717818945e-08  1.1608358988985195e-07  8.3731443498393408e-08  1.5430281105904549e-03  5.1580608183324705e-04  5.6508206327417210e-04  5.6428766777036181e-04  2.9005743907452677e-04  1.7189452642967737e-04  2.2713086103655582e-07  3.2155225756715664e-04  1.2706940333363271e-03  1.1592613699959189e-03  6.1302515664687354e-04  3.8958677883427819e-04  5.6563187921649673e-04  5.6576777580128444e-04  4.0663879005206934e-07  7.0925523229069829e-04  2.3865612502434089e-07  1.0214459279797694e-07  4.0456301405381604e-04  3.1643646006457304e-04  5.6574533988839779e-04  7.8437898058020054e-08  7.8495639306291313e-08  5.6489479680795591e-04  5.6529535077530426e-04  5.6530671852253499e-04  8.0103721151347537e-08  8.0251027901433109e-08  7.9639488048909574e-08  4.3815485822987514e-04  3.5268132443374567e-03  4.8462851307308197e-07  7.9010923721007935e-08  5.6398012843820360e-04  6.0013659332317556e-04  2.6548806811563843e-07  8.2676148923591146e-08  7.5286300444333499e-05  1.3504287715030610e-06  4.2790338434406469e-06  5.6545173303547804e-04  7.5626266466494998e-04  1.5397556925445491e-03  5.6545869659978699e-04  8.1412831622871949e-08  7.9386274603008362e-08  9.2878622834343533e-08  7.5171714185725993e-04  6.4551017523110650e-04  5.7906356837657952e-04  5.6662417359741710e-04  2.3393316701595732e-05  1.8185690742250168e-04  7.3688290818432365e-04  8.3955971075343979e-08  1.5039589450917641e-03  6.7843242082143117e-04  7.7786097461190877e-04  1.0295745045009306e-07  9.2862937166104629e-08  2.4770221072379654e-06  7.3216494053426168e-04  5.7272836537670122e-04  3.9959335750600128e-07  5.8245693963319132e-04  8.4123086382588180e-04  4.6599168915020627e-04  8.9501884273954788e-04  8.2674503959365531e-08  5.9282513472839950e-04  5.6643901206144057e-04  5.6552529221050134e-04  3.2511101363786262e-05  2.5215307888900269e-05  1.6524258611063884e-03  8.2944652687047483e-08  7.7782503901505003e-06  1.1893996967055670e-03  8.2119607025779938e-08  8.2575718767183089e-05  1.1692497781385959e-03  5.5704913486365984e-04  5.6465866381660954e-04  1.4376630615971491e-03  1.2183084281440399e-03  2.3685261272400598e-03  2.2267020852735644e-03  1.1165001722715006e-07  5.6549410170751919e-04  5.6559729161951970e-04  9.5659241743915427e-06  2.3062196251309928e-06  6.3608326332435664e-04  5.6389474269836744e-04  9.3302513719116357e-04  3.1138637711343388e-04  8.3134948694536077e-05  2.9406969601918484e-06  1.1443027655679563e-03  8.7429632605820488e-08  1.2104251526435465e-03  5.8693334721834456e-04  6.3172573746466776e-04  1.0465512772461114e-03  5.6550007941612800e-04  1.2986267617474294e-04  1.0228875056776240e-03  1.3188729023534556e-03  1.2976824223756389e-03  4.4699533300934921e-04  7.1714131562206833e-04  1.7711230739105076e-03  6.2141582379780921e-04  1.4242834608158036e-03  1.0348411300919169e-03  4.8178430563952726e-07  1.2055228807120583e-03  9.0027389561678553e-04  1.2445368026032645e-03  7.0158206539166340e-04  6.1479951291108738e-04  5.9296980437768206e-07  9.2626385348452457e-04  1.0034373582846592e-06  1.2874311420207177e-05  5.7043303392531879e-04  6.5503635554262291e-04  1.4826759070148098e-03  7.2655367847571128e-04  1.0432085627285644e-03  8.5085458695691656e-08  1.8089725411218763e-04  1.4193670990930514e-03  9.8157542664015197e-04  5.6684629352788361e-04  1.7557622259174934e-05  4.0859526796656623e-06  1.3891163259903089e-03  2.3816156558111449e-05  8.2191492638219153e-04  6.1774930047728532e-04  1.9283551394302853e-03  7.8558000339789908e-08  3.6246929476871153e-05  9.0029377210124249e-05  2.5902663528454397e-04  8.0171955930711074e-08  5.6950915210441831e-04  5.7605266236311398e-04  2.9098256558368119e-04  2.2773570292999126e-03  1.1128682975264830e-03  5.6316542650307073e-04  1.3965477066877501e-03  1.1302696659802106e-03  9.4042565129707763e-04  9.5452930074161897e-04  6.8284955439743792e-04  6.3738257295943405e-04  5.7143315244524565e-04  8.6389047707303524e-04  1.1989210629817012e-03  1.1122639124424960e-03  8.5322781782333569e-08  1.4209652125786940e-03  5.6604117306334359e-04  5.6582525314917366e-04  8.0828751207195243e-08  9.5859741755758251e-08  5.7269337952401929e-04  8.4336963351180847e-08  1.0735245427040865e-03  1.1045260462252592e-07  8.1507622401981425e-08  5.6549212999078649e-04  9.9302131428393304e-04  8.2296056631714461e-08  1.0676229417011245e-03  1.8118796288788168e-03  1.1499442377697331e-03  1.1437320084570778e-05  7.7562301637401850e-07  7.9620522773897656e-08  1.1910253728476922e-03  5.6694232546997093e-04  8.0972278011537543e-04  4.7356660241801247e-04  2.7397990727425789e-07  5.6873099279615197e-04  2.5906785635922987e-04  1.8649406263316741e-03  1.4736983804170326e-03  5.7542167116546577e-04  1.3147252601929224e-03  1.1720275573749828e-06  5.7049594264776959e-04  8.0467071880994979e-08  8.0667516685357104e-08  5.9073600365278913e-04  5.7428374056307265e-04  1.0270630574689802e-03  2.4702913222260728e-07  1.2489272873036843e-03  8.1318776885175248e-08  3.7985022742228060e-05  1.2940328196886416e-04  1.6885952869220800e-07  2.2864983168386965e-07  1.0292517112869000e-07  1.1886674098172611e-03  1.0123485382629882e-03  1.3670765533291976e-03  1.2544780081317783e-06  5.6297265341274689e-04  1.1723652170366357e-03  1.0941713950825467e-03  5.6500385890203371e-04  8.6568964618667307e-04  7.9340170140766492e-04  2.6869564686934162e-04  1.3516503219029134e-07  1.2392077733889314e-03  5.6574757680417898e-04  6.9898675001232142e-04  2.2015228489004438e-07  3.1270201200038640e-04  8.1988811963120168e-05  1.0772870251278636e-07  5.6343475606857248e-05  7.4801792018725809e-05  1.1926200817569197e-03  5.6547103456511846e-04  9.3382200605768241e-04  1.1788623781351918e-07  1.5927536217543177e-04  9.6178536265142901e-04  6.9801641721106835e-08  7.7540641937696734e-08  7.8229149926016417e-08  5.7459484113425296e-04  9.3563774513903496e-08  5.6562960033099054e-04  5.6550457937773317e-04  1.4662466673291105e-05  1.1442671564956841e-03  3.3306539903081446e-06  8.3667562751320876e-04  6.0652520925856069e-05  9.1942022506758447e-04  3.1394216603836936e-05  5.6548533174226540e-04  5.6585405293413426e-04  5.6379633378972327e-04  5.6399548994971629e-04  8.6665133927703963e-08  1.6400355703186896e-06  8.5031785334479788e-04  1.2049707424928474e-07  5.6738468790704653e-04  6.0014829419110713e-04  7.4449150926320261e-05  3.0119390943562713e-05  5.9487743454333074e-04  5.6542000624359133e-04  4.7592200176632617e-04  9.2604293554305022e-08  8.5625909200954480e-08  7.9995866621599364e-08  1.4859722509833603e-06  3.2979899115905198e-07  3.7729278279026988e-06  2.0584051818626497e-04  3.6195126186991611e-04  1.3478234189979877e-04  7.8090539476954845e-08  6.3701748403059374e-04  8.1618895827237444e-08  6.0829407527704924e-04  6.8703426493340128e-04  6.0444429280485948e-05  1.0197069732960620e-03  9.2348050585399093e-04  2.6116106508389649e-04  5.8720394768629295e-04  8.0908769842308120e-04  1.4295834378016435e-04  1.7540707181812196e-04  7.9058050916267768e-08  5.6520082845580761e-04  7.1088321143087220e-04  1.4719204045243156e-05  6.2616451981060007e-04  5.8084074808991933e-04  7.9577908599460619e-08  9.9319528557149776e-04  3.0481729038380838e-03  1.1933101727034097e-03  8.4589385575705247e-04  7.8439242060803131e-08  6.9877383043585764e-04  5.6519099013129989e-04  8.0400820813778409e-08  5.6454304527975079e-04  8.4249794630826752e-08  5.6045296260614802e-07  9.0777069223210607e-04  7.9998670304702634e-04  1.2184403037001209e-03  1.1098522047917152e-03  4.5848978398416905e-04  7.7339634422920935e-04  5.9795196527294458e-04  1.2649782541902597e-03  1.1762715404323345e-05  1.5434215573288705e-07  6.3480975988867657e-04  1.2555047557140061e-03  1.4348447186536520e-06  7.1927705181473896e-06  2.7015985556615841e-04  1.2564965132536247e-03  6.4016374390135535e-04  7.9809276576908760e-04  1.2280271462544714e-03  5.8645178918957923e-04  5.3814091229561979e-04  7.3011923235914770e-06  4.6482721324902389e-05  5.4169978813224496e-06  7.6493739929899091e-05  5.6667701714900782e-04  5.4493341348625806e-05  1.2079915317616379e-07  3.8821044589277445e-06  5.3697434209284197e-04  6.4417242297062314e-05  9.6233198097064009e-07  2.9781875943503475e-07  1.3966599171482325e-03  1.2790131798821065e-03  3.9781760620711219e-04  5.7031924797038176e-04  5.5473902759575573e-03  1.0517190266143904e-03  4.8221108968935364e-06  8.6178938011597450e-08  5.5704317217623617e-04  8.0034439939420913e-08  6.5613429194985497e-04  1.0150103069325295e-03  1.1240981095907998e-03  3.8939336218164983e-04  6.3827448192255263e-04  2.6644477806758190e-05  6.8243668595849088e-04  6.0841075579490993e-04  1.4370068931751337e-08  1.8380741361626371e-08  8.3464652699147810e-04  8.4588611122973708e-08  9.0258802370430150e-04  3.4087409930611450e-05  5.6531196137096470e-04  7.7986071694323310e-08  1.0589526742485094e-03  1.5037211751571513e-03  2.5677482562359834e-05  2.9065999233798937e-04  7.9854502254190943e-04  2.0932349967771286e-06  1.0654686619103499e-03  2.0380791690333124e-07  7.9836850103914850e-08  8.1029781916375317e-08  1.6108260054016722e-07  7.6567807407857723e-06  2.5939533833542398e-03  5.6562728511682541e-04  5.7606188983415601e-04  5.7794590349420053e-04  6.8573624631482763e-04  1.1176844451649078e-03  8.2525981870177770e-08  1.0081365309529767e-03  1.5403556643199695e-03  1.2380739037511637e-03  2.2873853521253827e-04  1.5243236693156101e-05  4.9746879893873722e-06  5.6532772986068504e-04  5.6557407136380354e-04  6.6960905057949040e-04  5.0551488614621275e-05  8.5497592016388253e-08  1.1062141371249140e-03  5.6458270145870676e-04  1.1345755222072738e-03  5.6368962459913048e-04  5.6308309912259027e-04  6.1806001747080998e-04  5.6549321336702080e-04  5.6362938421667926e-04  6.3767110354410019e-05  8.2110045994168595e-08  8.2962773081503611e-08  1.5349273489846479e-06  6.3800801350587152e-06  2.3196608860286539e-05  5.6539329608513988e-04  5.6547755577731316e-04  5.6549328989964056e-04  5.8411603987565245e-04  5.6234116988002015e-04  8.6464180540516966e-08  8.1373741315308899e-08  5.6545758264575998e-04  5.6295176644154316e-04  2.8385547972736297e-08  5.6481057730049138e-04  7.7860415600804407e-08  7.5985406980222743e-08  8.3773256454244348e-08  4.1404243844411302e-06  3.8731906419017505e-04  9.4391465134118478e-04  6.7096706010883009e-04  8.6728860420560484e-04  9.8216891664856115e-04  5.6549443658964371e-04  6.8671956340089768e-04  5.4593369429002344e-04  1.3789554683219486e-04  4.5759629395846255e-04  7.7619226055211951e-08  6.2492489667479349e-07  6.8976359348211851e-04  1.0062661399269895e-03  5.6489176745266271e-04  3.4480680222904030e-06  6.1064324458007355e-04  1.0226785494078141e-03  2.1164692190260193e-03  1.7032056912972668e-03  2.8170233285793088e-04  1.1191410857495609e-07  1.6514895610555129e-03  6.1500617866028229e-04  5.6546133327285231e-04  1.2665403414566373e-03  2.6420204729100071e-05  5.9779110055839014e-04  5.6556324916104839e-04  5.6549669366243865e-04  5.6554022396643384e-04  5.6583709307951667e-04  7.7697969896887596e-04  1.6914802000194229e-03  3.8988911833956287e-06  1.2778415705562093e-03  6.6499224010705348e-04  1.9978130863972203e-05  1.9456749236854511e-03  1.9713426008015606e-05  5.6570546245395328e-04  6.5543304809933698e-04  1.4383103865390440e-03  8.2235031750216747e-04  1.2474710088664471e-03  6.0302399923314344e-04  6.8491751545323993e-07  1.6290952121603218e-03  1.6174536069531679e-03  8.2868066055074253e-08  1.1664789298692012e-06  1.6188389708870795e-03  4.6683429319196076e-07  1.1986037342845176e-07  9.6912409427804948e-04  8.9037152027525356e-05  4.3670032125229369e-04  2.7910992336669733e-04  4.9125236657409049e-04  1.5946148780014545e-04  5.8219447687329884e-04  5.9075418318754866e-04  1.0636361328767068e-03  1.7351886417267743e-04  1.0248101330933196e-04  1.3925894274895994e-04  7.0562995521787598e-05  5.6699861569831870e-04  5.6550406136615704e-04  7.6656923134943683e-04  5.6838116509357810e-04  7.8123887157316438e-05  5.6581160506371240e-04  5.6551304607679756e-04  7.2961773043363893e-04  1.6245921291515157e-04  4.2311234956921390e-07  1.5054330761776408e-07  5.6539840530822464e-04  7.4368170951867498e-04  5.6681478961459898e-04  5.7103367781077136e-04  5.6672663101950654e-04  7.5857140096559014e-04  8.0106858415314936e-08  6.0824505111204557e-04  6.3749117354322473e-04  5.6539362126377098e-04  5.6527481624669084e-04  5.6505235304910582e-04  9.0780980050913195e-04  8.1071151460637518e-04  8.9196699428392453e-08  1.1426017926569371e-04  1.1383771712813667e-07  4.5191404283122233e-05  9.0866941916134623e-04  7.8755049958862224e-04  5.7007464219363774e-04  5.2714085674589845e-04  8.1038309738809185e-08  1.0057991593035473e-03  8.7033338326035096e-08  1.0267501267018516e-03  1.7255151246825418e-03  8.1633341057247893e-08  1.0648651605943697e-03  1.1831640214600761e-03  3.5836912577306523e-04  1.5878127288447416e-07  5.6359831454638038e-04  5.7933724006934795e-04  1.3607343503026440e-03  7.8220379510050614e-04  6.1036857432292886e-04  1.2351517876929192e-03  1.2328010848256699e-03  5.8125930875486888e-04  7.8972551724487676e-08  3.0880636204443114e-06  1.2345934487823799e-03  6.3402639610272461e-04  6.2170467724790212e-04  5.6517527452785966e-04  5.6396608459057245e-04  9.5126734414908597e-08  5.6351463301109654e-04  2.1377185262144834e-07  7.9358116440821620e-08  1.1378264023989752e-03  5.6545122411025685e-04  8.3360967654901219e-08  1.0160841530587549e-03  8.0542156023565705e-08  1.1344386884986977e-03  5.6482658501120836e-04  5.6512702098571968e-04  5.6528901056747990e-04  5.6472277258492727e-04  2.8765279437430