<?xml version="1.0"?>
<VTKFile type="UnstructuredGrid"  version="0.1"  >
<UnstructuredGrid>
<Piece  NumberOfPoints="6486" NumberOfCells="12696">
<Points>
<DataArray  type="Float64"  NumberOfComponents="3"  format="ascii">0 5 0  0 0 0  5 0 0  5 5 0  2.5 0 0  5 2.5 0  2.5 5 0  0 2.5 0  2.5 2.5 0  0 1.25 0  1.25 0 0  1.25 5 0  0 3.75 0  5 1.25 0  3.75 0 0  5 3.75 0  3.75 5 0  3.541666666666667 1.458333333333333 0  1.458333333333333 3.541666666666667 0  1.875 1.25 0  3.75 3.125 0  1.284722222222222 2.326388888888889 0  2.683189655172414 3.767959770114943 0  0.9375 0.9375 0  4.0625 4.0625 0  0.7252209595959597 3.026357323232324 0  2.763480392156863 0.9129901960784315 0  1.875 4.345238095238095 0  4.345238095238095 1.875 0  4.192708333333333 0.8072916666666664 0  0.8072916666666665 4.192708333333334 0  3.368055555555555 2.326388888888889 0  0.6837606837606839 1.738782051282051 0  3.285485245626782 4.324328415208927 0  2.551239698778062 1.693130150610969 0  1.827256944444444 2.868923611111111 0  3.464875022477093 0.6813924607921316 0  1.942880513719175 2.059558626187995 0  3.04563492063492 2.971230158730159 0  4.375 3.4375 0  2.13639445139758 0.5994472256987903 0  4.272228422619047 2.606956845238095 0  0.625 0 0  0 0.625 0  5 4.375 0  4.375 5 0  0.6400043240752655 2.384646170113389 0  1.347691225855598 1.660875475110776 0  3.515783617857982 3.723905460714006 0  3.125 0 0  1.875 0 0  0.625 5 0  4.375 0 0  5 1.875 0  0 1.875 0  0 3.125 0  1.875 5 0  5 0.625 0  0 4.375 0  3.125 5 0  5 3.125 0  1.489644181965304 0.6007147273217681 0  2.054597701149425 3.742302955665024 0  2.662520990197781 4.39452575763237 0  2.415835363784578 3.165530021913244 0  0.8679986894865213 3.602373689486522 0  1.267459753787878 2.886186079545454 0  4.099702380952381 1.365327380952381 0  1.316964285714286 4.438244047619047 0  3.7915135293491 1.959691594758709 0  2.875141124191255 2.118761176511833 0  3.00418010501169 1.397414179299248 0  0.4081721322167092 3.410647930198662 0  0.4166666666666666 0.9375 0  1.014190407998288 0.4422301359994293 0  1.383260571305984 1.162718286082048 0  4.53125 3.90625 0  4.453125 4.453125 0  3.772848162504192 4.48678272083473 0  2.8125 0.404329517041716 0  0.4538690476190476 0.4538690476190476 0  2.305461739347387 1.04517007574828 0  3.771263799175824 2.624190260297553 0  3.229617768018734 1.809956994202883 0  3.780190884441317 1.025307111692601 0  4.646337365591398 0.9375 0  4.537623451379149 0.4609485750426037 0  1.200477888421151 3.934852888421152 0  0.3536626344086022 4.0625 0  0.4623765486208503 4.539051424957397 0  4.0625 0.353662634408602 0  4.560525106689535 1.390989100915847 0  3.958439078571988 3.619844539285994 0  4.672619047619047 2.1875 0  2.1875 4.672619047619047 0  1.862808494877602 3.325947624431087 0  0.3268135998175443 2.8125 0  4.674181280189791 2.8125 0  2.283233994935276 4.138623547175983 0  0.9375 4.677879119362977 0  3.08488061581743 3.469889594488945 0  3.113427375573758 3.913955730709506 0  1.652847799068813 3.950848935641292 0  2.932652662909449 2.550542739521724 0  3.311350648514189 1.088831994878698 0  0.6770833333333333 1.295851139601139 0  0 1.5625 0  1.047214787840024 1.96818092308125 0  4.183331482095785 3.03958703580843 0  3.4375 5 0  1.071307777252521 3.246275861010018 0  0 2.1875 0  0.386576856303419 2.03125 0  1.713862716483534 2.439783116849799 0  1.775396256975935 1.665976816304977 0  2.231236976948428 1.443917394671254 0  2.373900732409897 2.086930260150635 0  4.114918237574474 2.221646174618671 0  3.661302567757379 4.099620139144836 0  3.378215938602977 2.734494874063393 0  0.9842097536079312 2.597286741306247 0  1.642795138888889 4.672619047619047 0  4.0625 5 0  2.099458800960004 2.567446522665629 0  2.616202751603346 1.297895893940078 0  5 4.6875 0  0.9937554350075428 1.512592975947215 0  2.8125 5 0  3.002695327068194 4.614055254615477 0  3.205627424097207 0.3852436382721472 0  1.678616581261621 0.927556612265266 0  3.365326698305438 3.196943731162083 0  1.554834936170314 3.120009882655813 0  3.108408340729323 0.7797187795784133 0  3.684368918102174 0.3728877601163941 0  2.716214835303553 3.39276351922003 0  2.37718583984784 3.551973401560441 0  0.3750662445374837 1.52191994866787 0  2.679073487930202 2.844160731602957 0  1.557635869750078 1.991068682985722 0  1.812595698561088 0.3839273018252746 0  2.512014721281916 0.6320641118792227 0  2.1875 0 0  2.349973454443689 0.3189980586887866 0  4.6875 3.59375 0  4.636052949022233 3.178355898044465 0  4.6875 5 0  3.345485909784306 4.665765449101383 0  0.536727472389443 3.749603193819277 0  4.349541499640203 1.116201826262156 0  2.886559045931982 1.774013674579691 0  0.6770833333333334 0.7142857142857143 0  1.5625 0 0  4.120842096538671 4.628726497527622 0  2.176157474177018 1.793470423744689 0  2.175650736889416 2.909863021769539 0  4.036616464259081 1.709699085170981 0  3.887974623473683 0.6492597046022868 0  3.4375 0 0  3.70675699592552 2.289666624772415 0  4.697265625 4.208984375 0  2.815177577303495 4.085937578239174 0  4.672619047619047 1.730733296184288 0  4.6875 0 0  5 0.3125 0  0.3125 5 0  0 4.6875 0  0.3276089296588581 2.484526834811734 0  0.712433309515852 2.065138854645612 0  0.6376435912223634 2.711473454001295 0  1.184991292170422 0.7222504400947201 0  1.31884329779317 0.3206944232264773 0  3.683609198994263 3.44428698533042 0  0.3125 0 0  0 0.3125 0  4.231797269642997 3.789141808928991 0  1.564375596050781 1.425998687184973 0  2.007640894175573 0.9032106925568466 0  0.955125897558294 2.276666098587227 0  1.43898735721003 2.611310720271951 0  1.954491523717513 4.040700257877075 0  1.752947649777421 3.652439445419346 0  2.509575750247638 4.678021307664052 0  4.687194709705067 2.499965519538002 0  1.5625 5 0  0.9375 5 0  5 2.8125 0  2.1875 5 0  5 1.5625 0  5 2.1875 0  4.0625 0 0  5 0.9375 0  2.8125 0 0  0.9375 0 0  0 0.9375 0  0 2.8125 0  0 3.4375 0  0 4.0625 0  5 3.4375 0  5 4.0625 0  4.010848109290813 3.306446973933037 0  0.3077461147713075 3.119700563473354 0  4.6796875 4.6796875 0  2.333079012424948 3.845757959077508 0  0.7829771267899832 3.317744656243421 0  1.159100632608513 3.532487125138763 0  0.799066251840424 3.893573750162776 0  1.57326499580282 4.255438189102632 0  0.7309366047093668 0.2991402264438908 0  0.3054777494262156 1.223275888123843 0  4.027475154280377 2.78211326942427 0  2.35270874745988 4.426658168476266 0  3.474236283732569 2.021154281686229 0  4.401414236174444 2.329446628171927 0  3.39403781747337 3.987097102903034 0  1.077524329801934 1.214100792470484 0  4.065611571711903 1.066085524514197 0  2.165399002716117 3.335637450367864 0  3.007639563081306 1.093684039371638 0  4.030818285732145 4.351883315180857 0  3.504115222530889 1.739284194222036 0  1.224503368215566 4.712091441401919 0  3.805634204685714 1.321528442399996 0  4.319233123479386 1.573547993867769 0  1.024007670021325 4.394604704797005 0  3.776400432023095 3.839003324979723 0  2.991819819453308 4.320567175146181 0  0.9782797534072181 2.886406017887129 0  1.763835134082104 0.6602345487826022 0  3.765182288741625 1.631193038541544 0  2.267959593989681 2.345053543725764 0  4.412434895833333 4.168294270833333 0  4.4072265625 4.7255859375 0  2.791493971314009 3.11210833271929 0  3.408766223032414 3.469500900677365 0  1.915147569444444 4.725484476461039 0  2.070301968506271 0.2605666686358055 0  2.767932250651506 1.530295992695836 0  3.280065043173439 1.364863281105779 0  4.45101570110842 2.974157152713635 0  3.521928862999512 2.96990445010402 0  2.552921961347576 4.008414007169315 0  0.2682955376854191 3.657555015841003 0  3.084522868361304 2.310593316718068 0  2.669255823227708 1.939379494498064 0  2.615884629473921 2.238841231570381 0  1.405652091971449 0.8877813821442277 0  3.25151486618811 3.68536115104276 0  1.963741569810629 2.331207252264507 0  4.017297980292599 2.486269171379106 0  3.869168920841219 4.748188103831625 0  3.596868753579134 4.77342723825056 0  2.41262958240343 2.764128584995838 0  1.266750578673391 1.404747710001619 0  1.559243962241121 2.85146506328516 0  3.128799423834764 2.052081657715259 0  0.6770833333333333 0.9778025793650794 0  0.2083333333333333 0.78125 0  1.978224492765132 3.087074731032578 0  4.051448850909273 1.969392119104174 0  1.320577095006813 4.172234780971559 0  3.214261103850064 2.534397293281829 0  0.2635729089754111 1.779234736680035 0  3.510775680035133 4.460728640112889 0  2.603081405968802 0.2432579385496493 0  2.866341315154884 0.6662105505481998 0  3.000919221100777 0.2270278495648781 0  1.298858304121393 2.05917319923859 0  2.020292299736597 1.589794568392338 0  0.7401688396476035 4.470780315741533 0  0.6721783535561408 4.733125588707921 0  3.753712482075402 2.874301339727514 0  3.557348205914658 2.491958694539413 0  1.094565978195436 0.2011034254079851 0  0.9338148378011396 0.6833568465908735 0  2.945530578578538 3.701798332963805 0  3.111707186654356 3.216904195825605 0  1.341791111822685 3.293123262233967 0  1.632939924064587 1.184895891095613 0  0.6335477978936732 3.517393619499591 0  0.5576014611130192 3.210998966942492 0  1.564344196470102 0.3630498725895039 0  2.75362450242839 4.626680495816594 0  3.571304405229554 1.192452351107437 0  3.522934592621944 0.9359134489437148 0  4.453125 3.671875 0  4.765625 3.828125 0  1.055906321410838 4.14310472322957 0  4.795146539102229 0.46875 0  4.767156345199235 0.7178596932040019 0  0.2048534608977711 4.53125 0  0.232843654800765 4.282140306795998 0  0.5393715189906129 4.270810883024032 0  4.329922600274667 0.2750645887059072 0  4.275515096738972 0.5448389557295173 0  4.477747423652795 0.7252838358993123 0  0.2002829820452772 0.46875 0  0.4352678571428572 0.6956845238095237 0  0.5007241582667088 0.2123388122114133 0  4.672890923830735 0.2500902110494848 0  0.4308009280819452 4.783624996516437 0  2.104871305393774 4.438653689007242 0  0.2274454167838428 0.2274454167838428 0  3.446466574593436 0.4359605369011901 0  2.12354112127588 1.217588426759619 0  2.309175236825235 0.7888355970690434 0  2.556178570281936 1.054299163237582 0  0.578683248637
[...]
<PointData  Scalars="f_10845-1"> 
<DataArray  type="Float64"  Name="f_10845-1"  format="ascii">3.0163127837926772e+05  8.5986759298453319e-01  1.5168334864086691e-02  1.4372312008880101e-02  3.4481302364852764e-02  1.5073335807914071e-02  3.8221372421405271e+04  1.5950964088389411e+09  3.3749006324799900e-02  -2.2513525137025263e+04  4.6440971326003298e-02  1.0635195288435598e+05  5.8511286570111498e+07  1.5145685408796045e-02  2.4819697112937657e-02  1.5062897657769686e-02  -1.1361450739426559e-03  2.6247084681592790e-02  2.7605406535354322e+06  3.9352117013782627e-02  2.4688652803665119e-02  -8.4266009940850765e+01  5.7476652845912157e-01  4.9969080352850220e-02  2.1622114206987071e-02  2.6200426838197380e+08  3.2309772174220763e-02  9.8225914623696543e+05  2.0110198007901824e-02  2.1271262752774325e-02  6.9348814831570992e+06  2.7679674220341861e-02  -8.4067924901638844e+02  1.7265663389379588e-02  3.4005172453963332e-02  -6.9052058900731128e-01  2.6924604698502389e-02  2.6400652237141668e-02  2.9769260957440424e-02  1.9866521084387381e-02  3.7261262571986462e-02  2.0632314501506665e-02  9.4692540924570856e-02  5.2215878160966529e+00  1.5057706625729819e-02  1.5794111663561351e-02  -2.0843093353761667e+06  1.0846539379766261e-01  2.5179621944481964e-02  2.9526402698392656e-02  3.9316277019431044e-02  1.9434940610259678e+05  1.9963422073456027e-02  1.5037873808042883e-02  -3.8300696853649981e+07  6.0038855215267122e+08  9.0449436769595850e+04  1.5181981700071319e-02  4.8878436958588865e+06  2.7596229926187749e+02  1.5012382081018920e-02  4.2730794651191333e-02  -4.5099576277431242e+02  3.0316102166694600e+02  1.0190543526856269e-01  7.9959777517991796e+07  -1.7879883457004915e+04  2.1999571866922561e-02  1.6032422845987384e+06  2.4365028938037575e-02  3.1491187200423827e-02  3.0488312379160245e-02  2.1753721111354673e+08  -1.4472303259949972e+00  5.2760211376799399e-02  4.3273258626150682e-02  1.8665469103737047e-02  1.8561790953374385e-02  1.9722660971136539e-02  3.1997665288314617e-02  -1.3914792578423099e-01  3.5950396600608066e-02  2.4568658282775623e-02  2.8766898804165521e-02  2.4489810785916166e-02  1.7841000791633293e-02  1.8702358052274912e-02  1.5462884593392367e+07  1.2912887221118651e+07  1.2604455589056592e+06  2.2360548877910617e-02  1.8395659131079815e-02  2.2942263807835400e-02  1.7571556354838268e-02  1.8458694940340371e+05  -5.6040702732762647e+01  9.9360384098710656e+08  1.7494759858773377e-02  7.3996894592681128e+03  5.6386268250516453e+05  2.7730682344687216e-02  1.9670937171847879e-02  3.0820693626749739e+06  3.0969136889254165e-02  2.8043103012933862e-02  -3.1663454482225983e+00  -7.8345012330528931e+05  1.8490571771250544e+02  2.1386120909877626e-02  1.0506969302873659e+00  3.0837551109163120e+07  5.6134990643692143e+07  1.3149713896568802e+06  -8.1687140709453541e+00  3.6676137207226997e-02  3.6498193506120158e-02  3.5243863681295701e-02  2.1812514402381737e-02  2.2661340591096372e-02  2.7584171456878758e-02  -1.0179224194770561e+05  4.4147345437598880e+05  1.5799094073406478e-02  1.2541780164558711e-01  3.3545696440473297e-02  1.4865362304413644e-02  2.5986446499946050e+00  6.0243520220524269e+03  1.2677099160827878e+00  2.8940826588438402e-02  4.0984017225827771e-02  2.7437143182719070e-02  -2.2180054352550460e+03  2.9668347538519570e-02  2.5187311121077690e-02  1.6823088037614873e-02  -1.1999466438240143e+00  1.8771237880438919e+04  3.2114198126111229e-02  -7.3193802940645170e-01  3.9891110872074587e-02  3.4258942610688403e-02  3.6794922938570999e-02  3.5497645997209670e-02  1.7456097230185812e-02  1.7823273177438252e-02  1.5450461901413224e-02  -3.3799909368623532e-01  4.9486052968556322e+07  2.0030744157347662e-02  3.1448167001823117e-02  2.8106666062786179e-01  4.2263110443462731e-02  1.8553933893665202e-02  3.6885335194768942e-02  -1.4396595412117071e-02  2.2432341347165822e-02  2.3603220907853970e-02  2.7154145958627605e-02  2.5045807652488022e-02  1.7295219765213150e-02  -1.8598251430332635e-01  1.7552475755093517e-02  1.7564629342660058e-02  1.5203889209893028e-02  2.6019786526660869e+05  1.1401759119310414e+06  8.0764782410602570e+06  -1.8138770883158209e+03  4.9123263968226705e+06  4.7746685315241864e-02  4.4865320215419197e-02  2.5013406481399974e-02  3.4312970232426898e-01  7.5753877580143025e-01  2.0874424101578325e-02  4.0591746948254445e-02  3.8275406984340662e-02  2.0052837253743848e+04  -7.1149902393485081e+02  2.7712482635396073e+05  7.5691820307501213e+04  2.7190524100134648e+04  1.7393116892586533e-02  1.1114451139325797e+05  1.2708657130213584e+05  1.5032820614052053e-02  7.0761981352071365e+04  1.5072204211403605e-02  1.5057307570304514e-02  2.2373674453617903e-02  1.5193314461782395e-02  3.1996306606638235e-02  5.5487024959204823e-02  1.3936602568224375e+03  1.0223095375289540e+09  2.1698441694133827e+08  1.3146023621050358e+07  1.5046380352246614e-02  1.5060863378067987e-02  2.2676809893576570e-02  5.8208811824790704e+08  1.6810281700640920e-02  -1.3691687117971844e+02  2.2520256997234172e+08  4.1517874008603275e+07  2.4605301903477523e+07  2.8261865628139502e+06  8.6577100898482251e-02  -7.9835598089686550e+02  2.2570541669206752e-02  3.6328745569091989e+04  2.6856151940960343e-02  1.9578051438752055e-02  2.4201158299683393e-02  5.5094911380376838e-02  2.2248714816390541e-02  -6.5557738350710890e+00  3.0411567064358443e-02  2.0494812925638286e-02  2.6580628831697737e-02  5.0067752217737213e+05  2.4283475963600462e-02  2.0298283789694990e-02  2.3948706892636335e+06  2.3692182048788743e-02  -1.2943867501362805e+00  -1.5437158240847976e+06  4.0271863450846886e-02  2.4512314348730052e-02  3.5698687895539552e-02  1.9324519567857856e-02  1.7560135814639527e-02  3.0466360341044087e-02  2.6607855766338867e-02  2.8197467497726536e+05  3.7756858064577674e-02  3.2342578758749227e-02  2.8302414897048014e-02  1.9258233422194619e-02  2.6440046017830846e-02  -1.0688297244645439e+01  8.1634190367878139e+07  2.9870470791757812e-02  3.3091697656327308e-02  3.3452923336644298e-02  4.3934030279151264e-02  2.5980177690234876e-02  -1.7916460641319126e-01  2.2625264806424621e-02  1.7605870157981179e-02  -8.2379283702657437e-03  2.9849607090223797e-02  3.0650367682992213e-02  9.3509272677857757e+02  2.9545398837608528e-02  1.2369664327298375e+00  -2.5733526072226823e+01  6.1556259711576615e+00  2.2308417260324207e-02  5.1909157695360361e+06  2.8855767598639566e-02  5.5655276456775970e+05  2.0971869477974501e-02  3.3618379886307462e-02  3.1495667212382866e-02  3.0533410336438620e-02  -1.6080172254457374e+01  3.8094586904523726e-02  1.6265918129805347e+06  4.6545060849249252e+05  2.4669503451875522e-02  2.6227435660409859e-02  4.9021413436251424e-02  4.4019617654867775e-02  2.2461233654279086e-02  2.8784950391544935e-02  2.1313987602972166e+05  4.1478571744059195e-02  1.3050117734428403e+08  4.0461491693804210e+08  4.2124565519172409e-02  1.3826146968341254e+03  2.6072434326926439e-02  2.6507319316040910e-02  1.9252610855586948e-02  1.6860670745789532e-02  7.0101456046418017e+06  1.6709181315284434e-02  1.6956976841944641e-02  2.1027536876976918e+06  4.5315797103822045e+06  4.5625646751157241e+06  2.0308263596220278e-02  2.0711520072195646e-02  1.9146082581427956e-02  2.7426803553903447e+00  -7.1339045640562759e-02  1.4442056379293697e-01  1.7678975216696268e-02  5.7555183134368504e+05  3.0556993048775924e+05  4.6843504573821493e-01  2.7036950748664825e-02  3.7345188134570100e-02  3.5921210540420273e-02  3.4009004117169013e-02  1.8342204226325803e+07  2.8204918390937240e-02  -5.6314162630195854e+00  3.1063246560919665e+07  2.3896068343848029e-02  1.7050429696713637e-02  1.6820688606431097e-02  1.6684060974184414e-02  4.4006650040167988e-02  1.0206314835921589e+07  3.3511824401886385e+07  2.9969721962729814e-02  1.9972701099552993e-02  2.9769935974063078e-02  2.5209936736209800e-02  -2.0255892155316513e+01  -1.8654012522157678e+04  -1.2896816489439282e+03  2.0146271402385757e-02  4.0744126838907165e-02  1.9251151493197515e-02  3.5964854888003987e+02  -7.6762152139092926e+06  1.6808311808502327e-02  -2.2889041370835781e+04  -5.0581496221864040e+02  2.1592462433388696e-02  2.2410516204719514e-02  2.2955870529353436e-02  7.9444544073358760e+04  6.2507536698285389e+08  1.1485223858539567e+09  1.6237104694738234e-02  1.8806307071363233e-02  5.3209194736447818e-01  2.8326228637528605e-02  2.8017885874511157e-02  2.1349480186711827e-02  2.5928619504454527e-02  1.6262734959507062e-02  2.9474881254541268e-02  3.1882505625365064e-02  2.9964597331001214e+05  -9.7029723268972012e-01  3.4645323752686437e+02  -1.2524396170914349e-02  -4.2288914140676958e+01  2.8098360566686742e-02  3.7060886247452170e+08  -3.5107343486332172e+08  1.6237755456041867e-02  1.6307920172439327e-02  1.3680178695672243e+04  6.0793929407927359e+05  1.5653670940056392e-02  2.3006627797796220e-02  2.0629546940961908e-02  3.2201578988825100e-02  1.6950122520629489e-02  3.0055946137315437e-02  2.2886359603496536e-02  1.8999001291480840e+06  2.5736575722329252e+05  3.2443696576459159e-02  8.5508003200055683e+08  7.2041820142095397e-02  1.9852232037070639e-02  2.8136914332760228e-02  5.5160133548290816e-02  3.5222886076903333e-02  5.5466233803985051e+02  -2.3741793524952848e+00  3.9342038300417215e-02  2.0876670405670199e-02  3.7218492045609154e-02  2.3176372040285519e-02  -4.6320337848589176e+01  -2.3540841301588472e+01  1.5246985691603970e-01  1.1024545415455671e+03  2.6828709292440664e+05  1.8476464850251843e-02  -1.5708083468056154e+02  3.4277133758642005e-02  4.6234328189448441e-02  1.1319436011867714e+06  -2.7899802975907460e+04  6.9372276878813893e-02  2.0045366941015590e-02  3.0983653476346480e-02  2.8418617686403535e-02  1.8193611766533141e-02  -1.2356100881558718e+00  4.5653241784518890e+01  3.0023196784265516e+06  2.3402397618721614e-02  2.0829285542128761e-02  3.6884714834711445e-02  2.1093288504942229e-02  4.5550871671004804e+00  -5.3234529525176424e+05  -1.8336770657123298e+00  1.6280609443633041e-02  3.5320098599499132e-02  3.4613831791686187e-02  3.5670130636305551e-02  1.9869574783125277e-02  1.0182468726054877e+08  5.0541563220317341e+07  2.5933122335455732e-02  -7.1657050293393898e-01  -7.5584082870735881e+02  1.1378777728012185e+05  3.6278430647453098e-02  1.1224730487025079e-01  2.4297841229551771e-02  -9.1273165761936681e-01  -9.1149792782169199e+04  -1.0761073339626162e+05  2.6659659530612260e+07  2.6164830914643923e-02  2.3995004041506101e-02  2.2635208674151561e-02  4.4072935057022755e-02  6.6542350953680274e-02  1.9791421542940149e+05  7.2487466071837139e+05  2.2248058360664576e-02  3.4163230016573079e-02  7.8184315003731586e+06  3.2105753859839048e-02  -7.1174958797081092e-02  4.3026614314873618e-02  1.8598376904301210e-02  1.8237678587689766e+08  3.6383329082436328e-02  2.5599991051120437e-02  1.6544563407849822e-02  -2.1775986760467453e-03  2.7718085424128298e-02  3.1984749352852622e-02  3.8877709346223345e-02  1.8783176710591546e-02  -2.3721364982650703e-01  8.2674170180023341e+06  5.8495058777924376e+00  1.7378803957122334e-02  1.9140148379237769e-02  8.1536156364297407e+04  3.8171322478244625e-02  -1.6983464728569988e+01  6.5698216512834154e-02  5.3567433062618737e+04  3.0226414705532462e-02  2.9209707343443213e-02  -4.6326858196779892e+07  2.1193297396559431e-02  2.1630290781289540e-02  -3.3296193165418985e+06  6.3623237747485039e+05  -5.9237634907630274e+02  2.9294225946330962e-02  -2.8879321167610932e+01  2.3774386914377249e-02  4.2039594391223838e-02  4.0033202417501738e-02  3.5690249667771602e-02  3.2931892535454040e-02  3.2941167803382604e-02  3.1875364653900617e-01  -3.9561153696449871e+00  2.6045822819817720e-02  5.7013296473332011e-02  1.5067929961938836e+05  1.9049668381485065e-02  1.8686771316294398e-02  1.0352035562252550e+06  2.0611274970881905e+03  3.3140122869485751e+01  4.2649995773312382e-02  3.6903589309874765e-02  2.7431243052377997e+01  3.4490212413707571e+06  -1.8670053804357813e+04  3.0968935195451065e-02  2.1181128095612862e-02  3.0174573587038993e-02  1.5038010316698887e-02  1.7661175963193044e-02  2.4091752355985284e-02  2.0649555454822322e-02  4.0368617571522579e+07  2.0521353271544612e-02  2.3012702587061666e-02  2.8731035017166496e-02  3.4568498611400024e-02  6.4497838100249880e-02  1.5166317120236457e-02  1.6481210503009540e-02  1.5955588144145632e+05  3.9226938582588862e-02  6.5807019860678941e+07  1.0588578137135184e+08  2.5729078422309346e-02  1.7381695436721412e-02  3.8376906773333823e-02  -1.9141318759524090e+01  3.8473543461657392e-02  -1.1015629189919448e+03  2.3068685025888866e-02  1.1740913537836593e+08  1.5831184983256064e+07  2.5907327500944646e+05  2.6581384020485985e+05  3.6397789396246653e-02  4.1278632998645454e-02  3.3032632808076258e-02  1.8134292909266530e-02  1.5578136297653844e+06  2.2875283427623720e+06  2.6447190420356377e-02  2.5478337218981774e-02  2.4129383955114193e-02  1.3141710158607466e+07  2.0576245576797048e-02  2.1155662650062280e-02  3.4826892277896850e-02  1.5124099252003059e-02  2.1411404302698205e-02  2.1784487571086125e-02  2.3272096427420695e-02  1.6233467869193250e-02  1.8046829143165570e-02  1.6419107254694094e-02  1.5137387013625450e-02  7.4488003059329189e+04  2.1055851298676889e-02  -1.9091642493659232e+05  2.9726826264986186e+04  2.8242003458485619e-02  -6.6769093677930089e-02  -1.2260736329834430e-01  2.7536227294317362e-02  1.6164899589215503e-02  1.8330412581475549e-02  3.2766664013749836e-02  3.1719569856870612e-02  1.8086550460575904e-02  2.7752934488371937e+06  -5.2977553671619335e+03  3.9553747104980885e-02  2.3360149885921853e-02  3.6019926550453139e+05  1.8983178229161575e-02  1.0527949932488288e-01  7.9700872063129868e-01  -3.8452452484785467e-02  -8.7184972194147505e+01  1.6363574808423240e-02  2.6349181346433718e-02  4.3635822021064712e+06  1.6354192482550666e-02  1.0751569303561011e+06  3.0270591010291368e-02  2.7320418058589240e-02  -4.7284932605715468e+00  1.5986382373629669e-02  2.9658767383114685e-02  1.4799442193397910e-02  1.6294102687043878e-02  -6.4201840203351276e+03  -9.9706484603490133e+05  4.2056108451025510e-02  1.8735431392111396e-02  1.6268443380108664e-02  1.2906512400922233e+05  2.4942533862840607e-02  4.7205671091085727e-02  2.9303423493368983e-02  1.5061435209989069e-02  3.3569086894807740e-02  -1.3147894173578861e+04  1.1814905548236502e+03  2.6937016945815635e-02  1.9262851777206294e+06  3.4001565381616618e-02  3.6902036385871403e-02  1.8808513737463665e-02  2.4632873337746369e-02  7.9178312326395911e-02  4.0614306828715938e+08  4.4457025971131499e-02  4.6009260164678288e-02  4.3933485712450995e-02  4.3562890024843683e-02  4.8450746328312755e-02  1.6301899382282395e-02  1.5052648759954252e-02  3.1124401326661135e-02  7.7552579699796151e+00  3.2751765452550104e-02  1.1861287964130166e+08  3.6971319658274040e+00  2.5620709066265308e-02  1.7892044808585396e-02  3.8057234577651235e-02  1.9693612887165441e-02  1.8965762707165809e-02  1.8289859702505355e-02  1.1237093807392322e+00  1.9584533021576121e-02  3.6932805165339810e-02  2.1745876951714121e-02  3.1087892776202324e-02  4.4564373203957857e+03  8.3650284304333967e+04  3.2709868956841043e-01  3.7721855760953338e-01  2.1186129982665069e-02  3.3215778390987154e-02  1.7546640898369378e-02  6.0332712356321627e-01  8.6319252147200499e+06  1.6227629252585703e-02  4.3332968612488205e-02  1.6479086265490005e-02  2.7534282562920485e-02  2.1943824322620636e-02  -1.6693865558878676e+03  3.7152523451604746e-02  1.4123661876104098e-02  1.0636709603791610e-01  1.9563326154665564e-02  2.2318175316501213e-02  3.8564000131905987e-02  2.0522756633757227e-02  1.4629227409862071e+00  2.3416705879951102e+08  1.7791148639915711e+06  3.9436149364418485e+06  -1.1753657263805756e+03  2.1741917731456853e-02  2.7100888868550839e-02  2.8833216877913466e-02  6.2448890331817143e-02  9.2777506291014208e-02  2.3398589598442952e-02  1.7435579201989002e-02  1.6171818610297876e-02  5.9145714487683605e+06  1.1735001993752189e+09  3.2767513090038133e+03  1.6186303530030786e-02  3.5639667702396238e-02  1.5680967975346259e-02  1.0129017800046776e+05  1.5898787756336356e-02  5.7593877715262538e+05  2.6485221962708654e+05  1.6635836176342644e+04  3.7873005747767353e+08  1.2898991718552867e+05  1.5027027283308955e-02  2.5997319008286539e-02  2.8335215138699587e-02  1.5071945741876905e-02  1.5045989766739367e-02  1.5018240243085903e-02  2.4499851294190604e+07  2.4022888704744763e+09  1.1395979853473661e+09  5.4135183754042839e+04  -1.2303837743190082e+05  4.0733920446636949e-02  2.3583265552822665e-02  2.8028319281976603e+07  2.1954581372371502e+05  2.0797984016191376e-01  2.3201485161381429e+06  1.5212533806793622e-02  4.9901554637699720e-02  3.0780038299595747e-02  -1.1680395432790775e+01  8.4456020811607391e+02  -1.0602686718750662e-01  1.4971494295055156e-02  1.4717803100445135e-02  1.5037242985533175e-02  8.4749648967287183e+08  1.6112601072543362e+03  -3.3329526875187440e+02  1.5056889452490096e-02  1.5098836668807290e-02  1.5177911111963245e-02  2.4316396355180767e-02  5.0971191940416056e+03  -8.4575709899863547e+00  2.1194914341974852e+05  3.0915990250018878e-02  3.7284382362731099e+04  4.4577747573422637e-02  2.5700450100400440e-01  6.9243825470867437e-03  1.8871788731470822e-02  5.8617827975190571e-02  -3.2475198583787994e-02  -2.1324335495361952e+03  1.3419608715824572e+07  -4.4834262269895561e+01  3.7124117381207279e-02  7.8389050819497777e+05  8.1481654814056420e+08  6.2266550693707669e+08  3.8475374783433336e+08  9.4821091449215400e+08  6.4500906566325220e+03  -1.0586942000311750e+02  1.8688712361283541e-02  2.5471053436891499e-02  3.0534967778820785e+04  2.0005490868941659e-02  -7.3052466182498429e-02  1.6305228955419471e-02  6.2095177251813090e+08  4.4776276080276330e+04  9.6460017131188791e-02  -2.3519986550047620e+03  3.1187951715076222e-02  1.0594431079189542e+06  3.1263532158131678e-02  -2.1250812875799507e+00  -1.9023691205844511e+00  2.4042215691690558e-02  1.8154635890214540e-02  -7.0861196176849370e+00  2.0336908331841531e-02  1.9435019439795313e-02  2.2967251213638326e+02  2.7588116411927120e-02  4.0385273753262015e-02  2.6774327012149830e-02  4.4338246118609745e-02  1.8848018121359670e-02  1.8047938532406975e+07  6.7332707236902053e+06  6.0045756460544102e-02  2.3815791399873134e-02  2.3340905837974772e-02  2.1736644016140286e-02  2.1945967240966195e-02  2.7392370202796701e+06  1.0260156397798051e+09  3.6924048518022104e+01  7.0587978316007927e+07  3.3541855523536432e-02  4.5691637685429916e+07  3.4289605715950429e+07  4.9883256907637616e+02  3.0659566597772334e-02  2.5474163720396552e-02  2.4868892373894946e-02  7.8486953090127399e+06  -3.6685687021600165e+02  3.3589534961608237e+08  1.2404449620653397e+08  1.4001304854765055e+08  3.6073718006209503e-02  2.0210873947187395e-02  1.5000251617261619e+05  3.2541841847077776e+04  1.7552786130180547e+06  3.3442306073335968e+06  1.3077474663494504e+06  -7.4189654072951294e-01  2.9158429435663609e-02  3.1197951153724816e-02  1.8967511867049026e-02  1.6556739064429272e-02  1.9859672014670267e-02  -1.2231695519579999e+02  -6.7517595692687491e+03  1.2944563842933958e+07  2.8703041973001019e-02  2.2769135436614293e-02  4.0445133399816313e-02  3.3112610709689752e-02  2.1111272412384557e-02  -2.1123897291258150e+01  2.4405348090777955e-02  2.1018461636637231e-02  2.0375802271377762e-02  1.6292183003951393e-02  2.1023831165215903e-02  3.5719092993532895e+05  2.2535820473377649e+06  2.6826665961013223e-02  3.2101947033949640e-02  -2.9747192652930680e+05  2.2890513582212186e-02  2.3371185997633673e-02  1.2416144253405938e+07  1.8011027103505640e-02  3.5342092375341805e-02  -1.5793387666322797e-01  -9.0595475289748618e+04  3.2326690879194441e+04  9.5565451873318793e+05  2.2579873632235191e+05  2.3409167155936855e-02  2.5900947665123260e+05  2.3232994505798115e-02  1.8163078343881141e-02  1.7950872766696730e-02  4.9657115913849445e+06  2.9514877099093735e-02  1.7541200793774331e-02  2.1554424037695179e-02  5.2812502592460883e-02  