<?xml version="1.0"?>
<VTKFile type="UnstructuredGrid"  version="0.1"  >
<UnstructuredGrid>
<Piece  NumberOfPoints="6486" NumberOfCells="12696">
<Points>
<DataArray  type="Float64"  NumberOfComponents="3"  format="ascii">0 2.5 0  0 0 0  2.5 0 0  2.5 2.5 0  1.25 0 0  2.5 1.25 0  1.25 2.5 0  0 1.25 0  1.25 1.25 0  0 0.625 0  0.625 0 0  0.625 2.5 0  0 1.875 0  2.5 0.625 0  1.875 0 0  2.5 1.875 0  1.875 2.5 0  1.770833333333333 0.7291666666666666 0  0.7291666666666666 1.770833333333333 0  0.9375 0.625 0  1.875 1.5625 0  0.642361111111111 1.163194444444444 0  1.341594827586207 1.883979885057471 0  0.46875 0.46875 0  2.03125 2.03125 0  0.3626104797979798 1.513178661616162 0  1.381740196078431 0.4564950980392157 0  0.9375 2.172619047619047 0  2.172619047619047 0.9375 0  2.096354166666667 0.4036458333333332 0  0.4036458333333333 2.096354166666667 0  1.684027777777778 1.163194444444444 0  0.3418803418803419 0.8693910256410255 0  1.642742622813391 2.162164207604464 0  1.275619849389031 0.8465650753054845 0  0.9136284722222221 1.434461805555556 0  1.732437511238546 0.3406962303960658 0  0.9714402568595876 1.029779313093998 0  1.52281746031746 1.485615079365079 0  2.1875 1.71875 0  1.06819722569879 0.2997236128493951 0  2.136114211309524 1.303478422619048 0  0.3125 0 0  0 0.3125 0  2.5 2.1875 0  2.1875 2.5 0  0.3200021620376328 1.192323085056694 0  0.6738456129277992 0.8304377375553881 0  1.757891808928991 1.861952730357003 0  1.5625 0 0  0.9375 0 0  0.3125 2.5 0  2.1875 0 0  2.5 0.9375 0  0 0.9375 0  0 1.5625 0  0.9375 2.5 0  2.5 0.3125 0  0 2.1875 0  1.5625 2.5 0  2.5 1.5625 0  0.7448220909826522 0.3003573636608841 0  1.027298850574712 1.871151477832512 0  1.331260495098891 2.197262878816185 0  1.207917681892289 1.582765010956622 0  0.4339993447432606 1.801186844743261 0  0.6337298768939392 1.443093039772727 0  2.049851190476191 0.6826636904761904 0  0.6584821428571428 2.219122023809524 0  1.89575676467455 0.9798457973793544 0  1.437570562095628 1.059380588255917 0  1.502090052505845 0.6987070896496241 0  0.2040860661083546 1.705323965099331 0  0.2083333333333333 0.46875 0  0.5070952039991439 0.2211150679997147 0  0.6916302856529919 0.5813591430410241 0  2.265625 1.953125 0  2.2265625 2.2265625 0  1.886424081252096 2.243391360417365 0  1.40625 0.202164758520858 0  0.2269345238095238 0.2269345238095238 0  1.152730869673694 0.5225850378741401 0  1.885631899587912 1.312095130148776 0  1.614808884009367 0.9049784971014416 0  1.890095442220658 0.5126535558463003 0  2.323168682795699 0.46875 0  2.268811725689575 0.2304742875213018 0  0.6002389442105756 1.967426444210576 0  0.1768313172043011 2.03125 0  0.2311882743104251 2.269525712478698 0  2.03125 0.176831317204301 0  2.280262553344767 0.6954945504579233 0  1.979219539285994 1.809922269642997 0  2.336309523809524 1.09375 0  1.09375 2.336309523809524 0  0.9314042474388009 1.662973812215543 0  0.1634067999087722 1.40625 0  2.337090640094896 1.40625 0  1.141616997467638 2.069311773587991 0  0.46875 2.338939559681489 0  1.542440307908715 1.734944797244472 0  1.556713687786879 1.956977865354753 0  0.8264238995344066 1.975424467820646 0  1.466326331454725 1.275271369760862 0  1.655675324257095 0.5444159974393489 0  0.3385416666666666 0.6479255698005697 0  0 0.78125 0  0.5236073939200119 0.984090461540625 0  2.091665741047893 1.519793517904215 0  1.71875 2.5 0  0.5356538886262603 1.623137930505009 0  0 1.09375 0  0.1932884281517095 1.015625 0  0.8569313582417669 1.2198915584249 0  0.8876981284879677 0.8329884081524883 0  1.115618488474214 0.7219586973356271 0  1.186950366204949 1.043465130075318 0  2.057459118787237 1.110823087309335 0  1.830651283878689 2.049810069572418 0  1.689107969301489 1.367247437031697 0  0.4921048768039656 1.298643370653124 0  0.8213975694444444 2.336309523809524 0  2.03125 2.5 0  1.049729400480002 1.283723261332814 0  1.308101375801673 0.6489479469700392 0  2.5 2.34375 0  0.4968777175037714 0.7562964879736076 0  1.40625 2.5 0  1.501347663534097 2.307027627307738 0  1.602813712048603 0.1926218191360736 0  0.8393082906308107 0.463778306132633 0  1.682663349152719 1.598471865581041 0  0.7774174680851571 1.560004941327907 0  1.554204170364662 0.3898593897892066 0  1.842184459051087 0.186443880058197 0  1.358107417651776 1.696381759610015 0  1.18859291992392 1.77598670078022 0  0.1875331222687418 0.7609599743339348 0  1.339536743965101 1.422080365801479 0  0.7788179348750389 0.9955343414928611 0  0.9062978492805438 0.1919636509126373 0  1.256007360640958 0.3160320559396114 0  1.09375 0 0  1.174986727221844 0.1594990293443933 0  2.34375 1.796875 0  2.318026474511116 1.589177949022232 0  2.34375 2.5 0  1.672742954892153 2.332882724550692 0  0.2683637361947215 1.874801596909639 0  2.174770749820102 0.5581009131310781 0  1.443279522965991 0.8870068372898454 0  0.3385416666666667 0.3571428571428572 0  0.78125 0 0  2.060421048269335 2.314363248763811 0  1.088078737088509 0.8967352118723447 0  1.087825368444708 1.454931510884769 0  2.018308232129541 0.8548495425854904 0  1.943987311736842 0.3246298523011434 0  1.71875 0 0  1.85337849796276 1.144833312386208 0  2.3486328125 2.1044921875 0  1.407588788651747 2.042968789119587 0  2.336309523809524 0.865366648092144 0  2.34375 0 0  2.5 0.15625 0  0.15625 2.5 0  0 2.34375 0  0.1638044648294291 1.242263417405867 0  0.356216654757926 1.032569427322806 0  0.3188217956111817 1.355736727000647 0  0.5924956460852111 0.36112522004736 0  0.6594216488965849 0.1603472116132387 0  1.841804599497131 1.72214349266521 0  0.15625 0 0  0 0.15625 0  2.115898634821499 1.894570904464496 0  0.7821877980253907 0.7129993435924866 0  1.003820447087786 0.4516053462784233 0  0.477562948779147 1.138333049293613 0  0.719493678605015 1.305655360135975 0  0.9772457618587566 2.020350128938537 0  0.8764738248887107 1.826219722709673 0  1.254787875123819 2.339010653832026 0  2.343597354852534 1.249982759769001 0  0.78125 2.5 0  0.46875 2.5 0  2.5 1.40625 0  1.09375 2.5 0  2.5 0.78125 0  2.5 1.09375 0  2.03125 0 0  2.5 0.46875 0  1.40625 0 0  0.46875 0 0  0 0.46875 0  0 1.40625 0  0 1.71875 0  0 2.03125 0  2.5 1.71875 0  2.5 2.03125 0  2.005424054645407 1.653223486966518 0  0.1538730573856537 1.559850281736677 0  2.33984375 2.33984375 0  1.166539506212474 1.922878979538754 0  0.3914885633949916 1.65887232812171 0  0.5795503163042564 1.766243562569382 0  0.399533125920212 1.946786875081388 0  0.7866324979014098 2.127719094551316 0  0.3654683023546834 0.1495701132219454 0  0.1527388747131078 0.6116379440619215 0  2.013737577140188 1.391056634712135 0  1.17635437372994 2.213329084238133 0  1.737118141866284 1.010577140843115 0  2.200707118087222 1.164723314085963 0  1.697018908736685 1.993548551451517 0  0.5387621649009668 0.6070503962352419 0  2.032805785855952 0.5330427622570983 0  1.082699501358059 1.667818725183932 0  1.503819781540653 0.5468420196858188 0  2.015409142866072 2.175941657590429 0  1.752057611265444 0.869642097111018 0  0.612251684107783 2.356045720700959 0  1.902817102342857 0.6607642211999982 0  2.159616561739693 0.7867739969338844 0  0.5120038350106624 2.197302352398502 0  1.888200216011548 1.919501662489862 0  1.495909909726654 2.16028358757309 0  0.489139876703609 1.443203008943564 0  0.8819175670410521 0.3301172743913011 0  1.882591144370812 0.8155965192707721 0  1.133979796994841 1.172526771862882 0  2.206217447916667 2.084147135416667 0  2.20361328125 2.36279296875 0  1.395746985657004 1.556054166359645 0  1.704383111516207 1.734750450338683 0  0.9575737847222222 2.36274223823052 0  1.035150984253136 0.1302833343179028 0  1.383966125325753 0.7651479963479179 0  1.64003252158672 0.6824316405528895 0  2.22550785055421 1.487078576356817 0  1.760964431499756 1.48495222505201 0  1.276460980673788 2.004207003584658 0  0.1341477688427096 1.828777507920502 0  1.542261434180652 1.155296658359034 0  1.334627911613854 0.9696897472490321 0  1.30794231473696 1.119420615785191 0  0.7028260459857245 0.4438906910721139 0  1.625757433094055 1.84268057552138 0  0.9818707849053143 1.165603626132254 0  2.0086489901463 1.243134585689553 0  1.934584460420609 2.374094051915812 0  1.798434376789567 2.38671361912528 0  1.206314791201715 1.382064292497919 0  0.6333752893366955 0.7023738550008095 0  0.7796219811205605 1.42573253164258 0  1.564399711917382 1.026040828857629 0  0.3385416666666666 0.4889012896825397 0  0.1041666666666667 0.390625 0  0.989112246382566 1.543537365516289 0  2.025724425454636 0.9846960595520872 0  0.6602885475034063 2.086117390485779 0  1.607130551925032 1.267198646640915 0  0.1317864544877056 0.8896173683400176 0  1.755387840017567 2.230364320056445 0  1.301540702984401 0.1216289692748247 0  1.433170657577442 0.3331052752740999 0  1.500459610550388 0.113513924782439 0  0.6494291520606965 1.029586599619295 0  1.010146149868299 0.794897284196169 0  0.3700844198238017 2.235390157870766 0  0.3360891767780704 2.36656279435396 0  1.876856241037701 1.437150669863757 0  1.778674102957329 1.245979347269706 0  0.5472829890977179 0.1005517127039925 0  0.4669074189005698 0.3416784232954367 0  1.472765289289269 1.850899166481903 0  1.555853593327178 1.608452097912802 0  0.6708955559113426 1.646561631116984 0  0.8164699620322933 0.5924479455478063 0  0.3167738989468366 1.758696809749795 0  0.2788007305565096 1.605499483471246 0  0.7821720982350511 0.181524936294752 0  1.376812251214195 2.313340247908297 0  1.785652202614777 0.5962261755537186 0  1.761467296310972 0.4679567244718574 0  2.2265625 1.8359375 0  2.3828125 1.9140625 0  0.5279531607054191 2.071552361614785 0  2.397573269551114 0.234375 0  2.383578172599618 0.3589298466020009 0  0.1024267304488855 2.265625 0  0.1164218274003825 2.141070153397999 0  0.2696857594953064 2.135405441512016 0  2.164961300137334 0.1375322943529536 0  2.137757548369486 0.2724194778647587 0  2.238873711826398 0.3626419179496562 0  0.1001414910226386 0.234375 0  0.2176339285714286 0.3478422619047619 0  0.2503620791333544 0.1061694061057066 0  2.336445461915368 0.1250451055247424 0  0.2154004640409726 2.3918124
[...]
<PointData  Scalars="f_16-1"> 
<DataArray  type="Float64"  Name="f_16-1"  format="ascii">5.6512405170899957e-04  1.6548413763304630e-08  8.0569470133665951e-08  9.2412332087453690e-04  8.6918183711156528e-08  3.4682582490311466e-06  5.9890890595613595e-04  5.6549093605388423e-04  1.1679023811827500e-03  5.5550203119137482e-04  8.2861258785505532e-08  5.6523433366172625e-04  5.6549323871221148e-04  8.0774272517724351e-08  8.3614524833882210e-08  1.9920108428672019e-04  1.0076125652872428e-03  1.4684343934775332e-06  6.0228373585649629e-04  2.2679298320659971e-04  4.9346431799042803e-04  1.1465637696124655e-03  1.1140279732623894e-03  1.3046000591115745e-03  1.0014625665126513e-03  5.6851802880473698e-04  6.0271534366916453e-07  5.8407075658618499e-04  1.0227867579283772e-06  8.2667270374361572e-08  5.6551620131613451e-04  1.6594427268403291e-04  9.7622630158129180e-04  1.1009248570774479e-03  1.7042728346251901e-04  1.1805517028888718e-03  8.6380957399225356e-08  1.3880341415413798e-03  1.0335275332514877e-03  2.9694652728594415e-04  5.5036387272517538e-07  4.0859790968448517e-05  5.3743344571517003e-08  5.6326852047312130e-05  5.6560786948948744e-04  1.1346641870456614e-03  5.9492149617511683e-04  1.8466110382496979e-03  1.1664582332937159e-03  8.5177996516611319e-08  8.8237440858590360e-08  5.6510476579919758e-04  8.2007929914481555e-08  1.6818028672139879e-07  5.6533228554753406e-04  5.6549652800100812e-04  5.6761773020032162e-04  8.0329955307964571e-08  5.6545479792223584e-04  7.3786033516708735e-04  3.9220652231521525e-05  8.3920113814452352e-06  7.3329548616412634e-04  7.4968644138521999e-04  1.3486847083931509e-03  5.6627691163901254e-04  6.9387172521672834e-04  1.5520699532909951e-07  5.6611586117918716e-04  1.1252904245372336e-05  2.8791733172828292e-04  8.4894207832527319e-06  5.6551963940552397e-04  3.0877853841556457e-03  1.5057437574243280e-05  7.2826103623328234e-04  5.1176891014869297e-04  9.6681780620069715e-04  1.1763275524915126e-03  8.8057352592556402e-08  2.5121521559325083e-04  1.0853206063731717e-05  1.5121144125807565e-04  3.6029025407237746e-05  9.9172863119885314e-08  8.1200421886354392e-08  8.1481615882303367e-08  5.6766187071552769e-04  5.6548644158218968e-04  5.6541643977601954e-04  8.2754818464414762e-08  9.4457118071523516e-08  7.4596099091820485e-04  1.9435722136030445e-06  5.9058123947442441e-04  8.3547091271252301e-04  5.6565245161309863e-04  2.8906915896817712e-05  6.9004213625951873e-04  5.6538776306727515e-04  1.2894917840876403e-03  1.2257432774183483e-03  5.8915468118913639e-04  6.7905642565863295e-04  2.9308514486667945e-07  2.1153259989526540e-03  5.6450205204879348e-04  1.2929959309967301e-03  1.7621968816576030e-04  8.7022209045419722e-04  5.7991230677477672e-04  5.6545063742516517e-04  5.7957694520662623e-04  1.4982583182474687e-03  1.0461355381240242e-03  1.5918691727699396e-04  7.9861900608787411e-04  1.4146697366793005e-05  1.2082488708572839e-03  4.4452274725146739e-04  6.6097342635852881e-04  5.6738493250552678e-04  1.1152961497763727e-03  1.5086761707842321e-03  1.7948953477774032e-05  7.7434114801344005e-04  2.0692541432669790e-03  6.4734662965113020e-04  8.0984449628476187e-04  8.5257986004574121e-08  7.2654740586206007e-05  9.1137118155700349e-04  7.4009311993702802e-04  1.1719764151285322e-07  8.3671401440270025e-08  1.3321611228641530e-03  1.0531045813448952e-03  7.3369513892767788e-04  1.2670041190985790e-03  1.7306530948802143e-03  2.1629788653842269e-07  1.8966950477534104e-07  8.7724741562952562e-08  9.3201769912582497e-08  2.3138075680422099e-04  9.8346281108204283e-05  1.0537349642197988e-03  9.5882131684396708e-04  5.6551369712828958e-04  8.4444955057543152e-08  8.6314457566896957e-05  1.3502437927512612e-03  8.8361442828460845e-08  1.1576079230371549e-03  6.1999543296268461e-04  1.3964028623924252e-03  1.1385048295337017e-06  8.3356666429475578e-08  8.4406311850635774e-08  5.9226004916045115e-05  6.2448823162576910e-04  9.8754493060907258e-04  1.7178708882356490e-07  8.1298252827789939e-08  8.0492563998164663e-08  5.6511991179488037e-04  5.6532933763736690e-04  5.6634881228542148e-04  7.1379836991819522e-04  5.7165183645830459e-04  1.3330772103926482e-04  5.1912414546206892e-07  8.3935549264153885e-04  1.2940844567547570e-08  6.0154543727605201e-07  6.5524760116886390e-04  9.5531755358636155e-04  1.5328953425637674e-05  8.0147378309347508e-04  1.0242401881474798e-03  6.2296952866658600e-04  6.4962649082948897e-04  6.3485515827692860e-04  7.7790179390400472e-06  5.6569193539220543e-04  5.6512579354853730e-04  1.2301940563544421e-05  5.7601225339969585e-04  8.8876506266986020e-08  6.7006242757828879e-07  8.2841027426154041e-08  8.0218187716486020e-08  8.5968075822969204e-08  7.3734372993988468e-08  5.1416556047529608e-04  5.6549588978859605e-04  5.6549577119470679e-04  5.6548625256169695e-04  9.5924081094383987e-05  3.6522831985897269e-04  4.2848258852776601e-04  5.6552712723072370e-04  9.4947681036279769e-04  8.3281552877393554e-04  5.6691953052237520e-04  5.7319003213863464e-04  5.6561255106782869e-04  5.7154109092021825e-04  5.0329043071060123e-06  9.3966163580852383e-04  1.3022435642420088e-04  6.4323375316596276e-04  4.1195330374663798e-05  8.4650564067406347e-06  1.2484569033988356e-03  1.7920569413118399e-03  8.8232148496948684e-08  1.0597329320461905e-03  9.0054342820018976e-07  1.1414065562927165e-03  8.9215870539000731e-06  5.6549598915266934e-04  2.4347170162578415e-07  2.1176078669958206e-07  5.6556598228574891e-04  1.0614930413787038e-03  9.5047884064530504e-04  5.9698296786130436e-04  5.2343833408563464e-06  1.7418758960706288e-06  1.2880642365811494e-03  8.1526056508055456e-04  1.0954219431773249e-03  1.3209651746333344e-03  1.1011253477042917e-03  5.7181748170394471e-04  9.5930326933324671e-08  4.0897374246266923e-05  2.1258303469488978e-06  8.4096292205320164e-05  5.5006319119142982e-04  8.7287492250066108e-04  5.6549590880580129e-04  2.9923236384215738e-04  2.7641268534922314e-04  6.7434222250726899e-04  1.8533034551100174e-04  1.2702073947588150e-03  1.5521806850347037e-03  5.5745333795190397e-05  1.1281130506347623e-03  1.0220182627711711e-03  1.4215475401698130e-03  1.6985949100492318e-03  9.1899085775640872e-04  1.2425888500187872e-04  2.7253006302176363e-03  2.7678088003080204e-03  1.1042016759924217e-03  4.8165021348404920e-06  5.6730930624184894e-04  3.9755140786290269e-04  5.7849992223337203e-04  1.1217079360949414e-03  8.7234448632301488e-08  1.1792153407437908e-07  8.5569869461356723e-08  1.5430299501694228e-03  5.1580791945065902e-04  5.6544774136092432e-04  5.6532566152275702e-04  2.9005938573399570e-04  1.7189637902359796e-04  2.2896845531924431e-07  3.2155409516144084e-04  1.2707062368747790e-03  1.1592641630578553e-03  6.1302821871471610e-04  3.8958861642930561e-04  5.6563766547113807e-04  5.6577036252458723e-04  4.0847638444535767e-07  7.0972946128650084e-04  2.4050314166017767e-07  1.0399028233337635e-07  4.0457241455049448e-04  3.1645443728769214e-04  5.6583569556559405e-04  8.0780973297772773e-08  8.0825646698824097e-08  5.6541588641888707e-04  5.6547118826695292e-04  5.6547435404318198e-04  8.2068346937348022e-08  8.2196309037424152e-08  8.1681234129757616e-08  4.3815669582415658e-04  3.5268150819317435e-03  4.8646610735374934e-07  8.1186971756333002e-08  5.6527597530997315e-04  6.0037995743504548e-04  2.6732566239631082e-07  8.4519123454619378e-08  7.5288138042030743e-05  1.3522663765671004e-06  4.2808714887342783e-06  5.6549849414176808e-04  7.5626472588270917e-04  1.5397575361151877e-03  5.6549151669113367e-04  8.3275551161835011e-08  8.1742262347411400e-08  9.5301296170129045e-08  7.5197499478886780e-04  6.4551201282546226e-04  5.7907951191152806e-04  5.6664151831262155e-04  2.3395155111924497e-05  1.8185942659057310e-04  7.3688480772016315e-04  8.5808506454792072e-08  1.5039607829921040e-03  6.7843609657811154e-04  7.7786731429628974e-04  1.0495677400080900e-07  9.4700531735946219e-08  2.4790845268044459e-06  7.3227117110780560e-04  5.7273021030587441e-04  4.0205058394072504e-07  5.8245877726325300e-04  8.4123273406356267e-04  4.6599654166488302e-04  8.9503896035138155e-04  8.4554658811610978e-08  5.9389657871393171e-04  5.6644100074362293e-04  5.6552716632068305e-04  3.2513830031114430e-05  2.5217431178036081e-05  1.6524277013240994e-03  8.4784964145132746e-08  7.7800908251071398e-06  1.1895356541341360e-03  8.3966856138591035e-08  8.2579035691447773e-05  1.1693259841670336e-03  5.5705097731033532e-04  5.6576001248111749e-04  1.4376649429121680e-03  1.2183102657960241e-03  2.3685279648351831e-03  2.2267039228690477e-03  1.1349072647395373e-07  5.6549716392477608e-04  5.6559913857053598e-04  9.5685182371576624e-06  2.3088161431881942e-06  6.3715192458629996e-04  5.6526278717268725e-04  9.3410034688576815e-04  3.1138856981172841e-04  8.3136951912907587e-05  2.9425347417327410e-06  1.1454481694638560e-03  8.9268241002601638e-08  1.2105276046784942e-03  5.8700254974998825e-04  6.3174388841754010e-04  1.0465531486628962e-03  5.6550211611174311e-04  1.2986451376902438e-04  1.0230595703672816e-03  1.3188762378873470e-03  1.2976842630378486e-03  4.4699717076994710e-04  7.1820402492559702e-04  1.7711249120497337e-03  6.2141766140008962e-04  1.4242852984732608e-03  1.0348429678859387e-03  4.8366495308317689e-07  1.2055247778301424e-03  9.0028088902798463e-04  1.2445393121681147e-03  7.0160955298302792e-04  6.1489874410783558e-04  5.9514184764979349e-07  9.2626616294563520e-04  1.0052749950923960e-06  1.2876149014494403e-05  5.7073203704145412e-04  6.5503819378551697e-04  1.4826777449920383e-03  7.2659111194610317e-04  1.0432105053177203e-03  8.6925802858572133e-08  1.8090103059136795e-04  1.4193690317329162e-03  9.8157726423469789e-04  5.6684813285095192e-04  1.7559498175915040e-05  4.0879038402267488e-06  1.3891185469138609e-03  2.3818108648349464e-05  8.2271239784651015e-04  6.1775161861431661e-04  1.9283569771637874e-03  8.0863106943818705e-08  3.6248767086009596e-05  9.0031214833284496e-05  2.5902847291120473e-04  8.2175598910237135e-08  5.6951316987770121e-04  5.7605491367803546e-04  2.9098445437558511e-04  2.2773588668999430e-03  1.1128701394687265e-03  5.6515635854938857e-04  1.3965495734602170e-03  1.1302975453933066e-03  9.4043492024560571e-04  9.5480779298454631e-04  6.8285146893096009e-04  6.3738442923217309e-04  5.7144482729715542e-04  8.6389392731731573e-04  1.1989511675815111e-03  1.1123119574763969e-03  8.7160376119883281e-08  1.4209673283261969e-03  5.6725737381123147e-04  5.6636177068908008e-04  8.2723143815586196e-08  9.7697392064568631e-08  5.7273699084818661e-04  8.6174869068617984e-08  1.0736004394925386e-03  1.1229019898105991e-07  8.3635185726213376e-08  5.6549724688211987e-04  9.9302315245626939e-04  8.4145921855822604e-08  1.0688035504738973e-03  1.8118814668518367e-03  1.1499480151981546e-03  1.1439157884741878e-05  7.7746061171002857e-07  8.1659936627781947e-08  1.1910292129204126e-03  5.6694416755121205e-04  8.0999308063695096e-04  4.7360733395467210e-04  2.7607440924294579e-07  5.7045010218102006e-04  2.5906969395818444e-04  1.8649424639580502e-03  1.4737002966735055e-03  5.7542350896176762e-04  1.3147313878020873e-03  1.1738665248304531e-06  5.7049780491933734e-04  8.2390968776714273e-08  8.2571845627635453e-08  5.9073791074854324e-04  5.7470022102116040e-04  1.0270648960332017e-03  2.4886815613311452e-07  1.2489291249090987e-03  8.3185788550685752e-08  3.7986860336586720e-05  1.2940511956365902e-04  1.7069713623914916e-07  2.3048755347184792e-07  1.0476290899445455e-07  1.1886747759989871e-03  1.0123624388065119e-03  1.3670794033269905e-03  1.2563156024126039e-06  5.6511170962170014e-04  1.1728062550363017e-03  1.0946101903693700e-03  5.6550633509667373e-04  8.6569149865207745e-04  7.9488834053623929e-04  2.6869748446378054e-04  1.3700263094970920e-07  1.2392096272388496e-03  5.6590070357274503e-04  6.9898892856989491e-04  2.2199034749803841e-07  3.1270505067764473e-04  8.1990650242224098e-05  1.1051821223821016e-07  5.6345897973922851e-05  7.4803658326359567e-05  1.1928149929944115e-03  5.6549452124968625e-04  9.3389718223047631e-04  1.1976884382920643e-07  1.5927720227060821e-04  9.6178720429849010e-04  7.1639236001808236e-08  8.0279813439004853e-08  8.0699676531233472e-08  5.7570079216077898e-04  9.5401369647741457e-08  5.6564051696961410e-04  5.6551241146386223e-04  1.4664315372398187e-05  1.1452245844144416e-03  3.3324915860648540e-06  8.3677299199932031e-04  6.0654358521464909e-05  9.1942206526812308e-04  3.1396097970005503e-05  5.6549482111863147e-04  5.6589576024009154e-04  5.6524987426530542e-04  5.6529533406359086e-04  8.8502735787239303e-08  1.6418731647898620e-06  8.5031969981957684e-04  1.2270081370836724e-07  5.6763995596228914e-04  6.0016140907621603e-04  7.4450995847254872e-05  3.0121241389255717e-05  5.9488059781899558e-04  5.6548680924091367e-04  4.7592952689230446e-04  9.4548656887744585e-08  8.7463539342315571e-08  8.2739108449131602e-08  1.4879000396280358e-06  3.3171691417444960e-07  3.7748050927248261e-06  2.0585002640150700e-04  3.6196477485420054e-04  1.3478718226934096e-04  8.0547973795298487e-08  6.3714398675230515e-04  8.3562298169016398e-08  6.0829591851758460e-04  6.8703610861054170e-04  6.0446269106909916e-05  1.0200212246025376e-03  9.2449361278336786e-04  2.6116291527569460e-04  5.8733607137078422e-04  8.0923027595749923e-04  1.4296018150388137e-04  1.7540890976868370e-04  8.1225670305162594e-08  5.6545907612893869e-04  7.1088832179682401e-04  1.4721041640083200e-05  6.2616907415809307e-04  5.8133923847509010e-04  8.1627128780000237e-08  9.9319712316578044e-04  3.0481747414323867e-03  1.1933120102977058e-03  8.4590616344755410e-04  8.0780546435209242e-08  6.9877620996061402e-04  5.6519282820529238e-04  8.2904958996372684e-08  5.6536391071924713e-04  8.6088283370008917e-08  5.6229503196095165e-07  9.0788921562545341e-04  8.0045192659509870e-04  1.2184427596587098e-03  1.1103157657284587e-03  4.5855135827995309e-04  7.7339818202313540e-04  5.9795413619726163e-04  1.2649825445691246e-03  1.1764841908006633e-05  1.5691573477003859e-07  6.3481575399104804e-04  1.2555244059578032e-03  1.4366823129378897e-06  7.1946093230417983e-06  2.7018644911383526e-04  1.2564983983656232e-03  6.4016558310601784e-04  7.9809467841104496e-04  1.2280332235815917e-03  5.8645365523217116e-04  5.3814275078122866e-04  7.3030299219421156e-06  4.6484870099744530e-05  5.4188570300237551e-06  7.6495577524180068e-05  5.6667890999764336e-04  5.4495178942926082e-05  1.2263674747042420e-07  3.8839420532347486e-06  5.3697617968714666e-04  6.4419079891345134e-05  9.6491656150844752e-07  3.0064093988872930e-07  1.3966619405407683e-03  1.2790152521482984e-03  3.9781944461647216e-04  5.7032120870236750e-04  5.5473921135518415e-03  1.0517260602776971e-03  4.8243407102080544e-06  8.8016534451202715e-08  5.5706215910607704e-04  8.2120761351830452e-08  6.5620051821320912e-04  1.0150416461165302e-03  1.1244020682296308e-03  3.8939519980703318e-04  6.3828434941287497e-04  2.6646315746217077e-05  6.8278308952355227e-04  6.0901427568795647e-04  1.6207663212397750e-08  2.0218335642275412e-08  8.3467794653703151e-04  8.6426366185253279e-08  9.0293721587417447e-04  3.4089247524892271e-05  5.6547324639849822e-04  8.0498690497875258e-08  1.0589545118461054e-03  1.5037230127700313e-03  2.5679323572686612e-05  2.9066241424002343e-04  7.9854788747085986e-04  2.0950725945819874e-06  1.0669891638170712e-03  2.0564551118400347e-07  8.1840346414011422e-08  8.2926422358852952e-08  1.6292019625094595e-07  7.6587513825756845e-06  2.5939552209494985e-03  5.6563102479966409e-04  5.7621811926964568e-04  5.7800625208999856e-04  6.8574708259939142e-04  1.1177684122550204e-03  8.4368881749521877e-08  1.0081388475702854e-03  1.5403575254180587e-03  1.2380823176527003e-03  2.2874051698076542e-04  1.5245547139361928e-05  4.9772831565815195e-06  5.6547570827064186e-04  5.6557592637932808e-04  6.7066702445094106e-04  5.0554379131401442e-05  8.7335207944012109e-08  1.1078577218487924e-03  5.6630216977690063e-04  1.1361268567284144e-03  5.6522997229587748e-04  5.6513061202355754e-04  6.1960266953714417e-04  5.6549629193118568e-04  5.6537562072718440e-04  6.3770700366099379e-05  8.3957372362099784e-08  8.4802953899581002e-08  1.5377605205461322e-06  6.3829171791168322e-06  2.3199552697465874e-05  5.6539513584111256e-04  5.6547940238765621e-04  5.6549516336043873e-04  5.8568950299295645e-04  5.6234300750796049e-04  8.8301775152525219e-08  8.3237922860370052e-08  5.6549129238778629e-04  5.6510808781568521e-04  3.0223142253386383e-08  5.6540354132884765e-04  8.0401445623250382e-08  7.7823001262903474e-08  8.5611533025122785e-08  4.1422619787224370e-06  3.8732090178446782e-04  9.4540622407220153e-04  6.7130705145830637e-04  8.6834002268602374e-04  9.8372740016278962e-04  5.6549652261153615e-04  6.8824985241173846e-04  5.4593553188519224e-04  1.3790278034252041e-04  4.5769374371554619e-04  8.0260993609020839e-08  6.2678697708034018e-07  6.8995139934362713e-04  1.0062691463160573e-03  5.6617702892624037e-04  3.4499060655162014e-06  6.1167637420359619e-04  1.0226803870024999e-03  2.1164710566281670e-03  1.7032075288919062e-03  2.8170770131758839e-04  1.1375170285568199e-07  1.6514913989476502e-03  6.1500801625727678e-04  5.6552234411106999e-04  1.2665422066401005e-03  2.6422042326800731e-05  5.9787213258238902e-04  5.6556527166425204e-04  5.6549902003410200e-04  5.6554300169599496e-04  5.6583897161060907e-04  7.7698153658384771e-04  1.6914820376143476e-03  3.9010187987321586e-06  1.2778570489046421e-03  6.6501425944190179e-04  1.9980145995583182e-05  1.9456767613222328e-03  1.9716037817324527e-05  5.6570766832868063e-04  6.5548849496035945e-04  1.4383122334680877e-03  8.2235215599718624e-04  1.2474730839968893e-03  6.0305811071820951e-04  6.8675548825421696e-07  1.6290970523592323e-03  1.6174554507688522e-03  8.4732788067977723e-08  1.1687089046264938e-06  1.6188408089401604e-03  4.6882038968873892e-07  1.2192240456424995e-07  9.6912617247495408e-04  8.9038993686111378e-05  4.3670215884851466e-04  2.7911178831079031e-04  4.9125420416847878e-04  1.5946432462885567e-04  5.8219790465856563e-04  5.9075872791821327e-04  1.0637691495483544e-03  1.7352076447124741e-04  1.0248290041129534e-04  1.3926093357804892e-04  7.0564916627611390e-05  5.6715978041242373e-04  5.6550598454224786e-04  7.6662717512679932e-04  5.6838780419642273e-04  7.8125724819823900e-05  5.6582601004576529e-04  5.6553409720811279e-04  7.3025947089848874e-04  1.6246105118623182e-04  4.2496278923050421e-07  1.5240037816598067e-07  5.6548961756339795e-04  7.4371642108513893e-04  5.6681721626161718e-04  5.7103633679741832e-04  5.6673110974478737e-04  7.5857323901892273e-04  8.2082535646703503e-08  6.0858053850777608e-04  6.3785092553730416e-04  5.6569000621318479e-04  5.6549686365325131e-04  5.6546141505865461e-04  9.0828496808726907e-04  8.1071349935665229e-04  9.1034770048254137e-08  1.1426253486363575e-04  1.1632874723284117e-07  4.5193445956264612e-05  9.0867429833246577e-04  7.8755249119863836e-04  5.7007649358782836e-04  5.2714273525167148e-04  8.2917277510850546e-08  1.0058009969169802e-03  8.8871080891157264e-08  1.0273203617611418e-03  1.7255169623677875e-03  8.3492952777847776e-08  1.0649609960806769e-03  1.1834027175447316e-03  3.5840061409989147e-04  1.6073297068687327e-07  5.6521423297555538e-04  5.7933921437087425e-04  1.3607372583757176e-03  7.8220564596054309e-04  6.1037044892209378e-04  1.2351929142182304e-03  1.2328568835442042e-03  5.8126849934919081e-04  8.1170952535661310e-08  3.0899012312177817e-06  1.2345964152134345e-03  6.3402838736072143e-04  6.2170658910594130e-04  5.6568104771344383e-04  5.6532036499008938e-04  9.7002987555601975e-08  5.6520120324209881e-04  2.1565155530821761e-07  8.1449829838323893e-08  1.1385435610659976e-03  5.6558890984566995e-04  8.5199932702413718e-08  1.0166441736791918e-03  8.2456637750306154e-08  1.1344798095395193e-03  5.6540731822626953e-04  5.6545015610431719e-04  5.6547602074557212e-04  5.6539464437126684e-04  2.8765463211123