<?xml version="1.0"?>
<VTKFile type="UnstructuredGrid"  version="0.1"  >
<UnstructuredGrid>
<Piece  NumberOfPoints="6486" NumberOfCells="12696">
<Points>
<DataArray  type="Float64"  NumberOfComponents="3"  format="ascii">0 2.5 0  0 0 0  2.5 0 0  2.5 2.5 0  1.25 0 0  2.5 1.25 0  1.25 2.5 0  0 1.25 0  1.25 1.25 0  0 0.625 0  0.625 0 0  0.625 2.5 0  0 1.875 0  2.5 0.625 0  1.875 0 0  2.5 1.875 0  1.875 2.5 0  1.770833333333333 0.7291666666666666 0  0.7291666666666666 1.770833333333333 0  0.9375 0.625 0  1.875 1.5625 0  0.642361111111111 1.163194444444444 0  1.341594827586207 1.883979885057471 0  0.46875 0.46875 0  2.03125 2.03125 0  0.3626104797979798 1.513178661616162 0  1.381740196078431 0.4564950980392157 0  0.9375 2.172619047619047 0  2.172619047619047 0.9375 0  2.096354166666667 0.4036458333333332 0  0.4036458333333333 2.096354166666667 0  1.684027777777778 1.163194444444444 0  0.3418803418803419 0.8693910256410255 0  1.642742622813391 2.162164207604464 0  1.275619849389031 0.8465650753054845 0  0.9136284722222221 1.434461805555556 0  1.732437511238546 0.3406962303960658 0  0.9714402568595876 1.029779313093998 0  1.52281746031746 1.485615079365079 0  2.1875 1.71875 0  1.06819722569879 0.2997236128493951 0  2.136114211309524 1.303478422619048 0  0.3125 0 0  0 0.3125 0  2.5 2.1875 0  2.1875 2.5 0  0.3200021620376328 1.192323085056694 0  0.6738456129277992 0.8304377375553881 0  1.757891808928991 1.861952730357003 0  1.5625 0 0  0.9375 0 0  0.3125 2.5 0  2.1875 0 0  2.5 0.9375 0  0 0.9375 0  0 1.5625 0  0.9375 2.5 0  2.5 0.3125 0  0 2.1875 0  1.5625 2.5 0  2.5 1.5625 0  0.7448220909826522 0.3003573636608841 0  1.027298850574712 1.871151477832512 0  1.331260495098891 2.197262878816185 0  1.207917681892289 1.582765010956622 0  0.4339993447432606 1.801186844743261 0  0.6337298768939392 1.443093039772727 0  2.049851190476191 0.6826636904761904 0  0.6584821428571428 2.219122023809524 0  1.89575676467455 0.9798457973793544 0  1.437570562095628 1.059380588255917 0  1.502090052505845 0.6987070896496241 0  0.2040860661083546 1.705323965099331 0  0.2083333333333333 0.46875 0  0.5070952039991439 0.2211150679997147 0  0.6916302856529919 0.5813591430410241 0  2.265625 1.953125 0  2.2265625 2.2265625 0  1.886424081252096 2.243391360417365 0  1.40625 0.202164758520858 0  0.2269345238095238 0.2269345238095238 0  1.152730869673694 0.5225850378741401 0  1.885631899587912 1.312095130148776 0  1.614808884009367 0.9049784971014416 0  1.890095442220658 0.5126535558463003 0  2.323168682795699 0.46875 0  2.268811725689575 0.2304742875213018 0  0.6002389442105756 1.967426444210576 0  0.1768313172043011 2.03125 0  0.2311882743104251 2.269525712478698 0  2.03125 0.176831317204301 0  2.280262553344767 0.6954945504579233 0  1.979219539285994 1.809922269642997 0  2.336309523809524 1.09375 0  1.09375 2.336309523809524 0  0.9314042474388009 1.662973812215543 0  0.1634067999087722 1.40625 0  2.337090640094896 1.40625 0  1.141616997467638 2.069311773587991 0  0.46875 2.338939559681489 0  1.542440307908715 1.734944797244472 0  1.556713687786879 1.956977865354753 0  0.8264238995344066 1.975424467820646 0  1.466326331454725 1.275271369760862 0  1.655675324257095 0.5444159974393489 0  0.3385416666666666 0.6479255698005697 0  0 0.78125 0  0.5236073939200119 0.984090461540625 0  2.091665741047893 1.519793517904215 0  1.71875 2.5 0  0.5356538886262603 1.623137930505009 0  0 1.09375 0  0.1932884281517095 1.015625 0  0.8569313582417669 1.2198915584249 0  0.8876981284879677 0.8329884081524883 0  1.115618488474214 0.7219586973356271 0  1.186950366204949 1.043465130075318 0  2.057459118787237 1.110823087309335 0  1.830651283878689 2.049810069572418 0  1.689107969301489 1.367247437031697 0  0.4921048768039656 1.298643370653124 0  0.8213975694444444 2.336309523809524 0  2.03125 2.5 0  1.049729400480002 1.283723261332814 0  1.308101375801673 0.6489479469700392 0  2.5 2.34375 0  0.4968777175037714 0.7562964879736076 0  1.40625 2.5 0  1.501347663534097 2.307027627307738 0  1.602813712048603 0.1926218191360736 0  0.8393082906308107 0.463778306132633 0  1.682663349152719 1.598471865581041 0  0.7774174680851571 1.560004941327907 0  1.554204170364662 0.3898593897892066 0  1.842184459051087 0.186443880058197 0  1.358107417651776 1.696381759610015 0  1.18859291992392 1.77598670078022 0  0.1875331222687418 0.7609599743339348 0  1.339536743965101 1.422080365801479 0  0.7788179348750389 0.9955343414928611 0  0.9062978492805438 0.1919636509126373 0  1.256007360640958 0.3160320559396114 0  1.09375 0 0  1.174986727221844 0.1594990293443933 0  2.34375 1.796875 0  2.318026474511116 1.589177949022232 0  2.34375 2.5 0  1.672742954892153 2.332882724550692 0  0.2683637361947215 1.874801596909639 0  2.174770749820102 0.5581009131310781 0  1.443279522965991 0.8870068372898454 0  0.3385416666666667 0.3571428571428572 0  0.78125 0 0  2.060421048269335 2.314363248763811 0  1.088078737088509 0.8967352118723447 0  1.087825368444708 1.454931510884769 0  2.018308232129541 0.8548495425854904 0  1.943987311736842 0.3246298523011434 0  1.71875 0 0  1.85337849796276 1.144833312386208 0  2.3486328125 2.1044921875 0  1.407588788651747 2.042968789119587 0  2.336309523809524 0.865366648092144 0  2.34375 0 0  2.5 0.15625 0  0.15625 2.5 0  0 2.34375 0  0.1638044648294291 1.242263417405867 0  0.356216654757926 1.032569427322806 0  0.3188217956111817 1.355736727000647 0  0.5924956460852111 0.36112522004736 0  0.6594216488965849 0.1603472116132387 0  1.841804599497131 1.72214349266521 0  0.15625 0 0  0 0.15625 0  2.115898634821499 1.894570904464496 0  0.7821877980253907 0.7129993435924866 0  1.003820447087786 0.4516053462784233 0  0.477562948779147 1.138333049293613 0  0.719493678605015 1.305655360135975 0  0.9772457618587566 2.020350128938537 0  0.8764738248887107 1.826219722709673 0  1.254787875123819 2.339010653832026 0  2.343597354852534 1.249982759769001 0  0.78125 2.5 0  0.46875 2.5 0  2.5 1.40625 0  1.09375 2.5 0  2.5 0.78125 0  2.5 1.09375 0  2.03125 0 0  2.5 0.46875 0  1.40625 0 0  0.46875 0 0  0 0.46875 0  0 1.40625 0  0 1.71875 0  0 2.03125 0  2.5 1.71875 0  2.5 2.03125 0  2.005424054645407 1.653223486966518 0  0.1538730573856537 1.559850281736677 0  2.33984375 2.33984375 0  1.166539506212474 1.922878979538754 0  0.3914885633949916 1.65887232812171 0  0.5795503163042564 1.766243562569382 0  0.399533125920212 1.946786875081388 0  0.7866324979014098 2.127719094551316 0  0.3654683023546834 0.1495701132219454 0  0.1527388747131078 0.6116379440619215 0  2.013737577140188 1.391056634712135 0  1.17635437372994 2.213329084238133 0  1.737118141866284 1.010577140843115 0  2.200707118087222 1.164723314085963 0  1.697018908736685 1.993548551451517 0  0.5387621649009668 0.6070503962352419 0  2.032805785855952 0.5330427622570983 0  1.082699501358059 1.667818725183932 0  1.503819781540653 0.5468420196858188 0  2.015409142866072 2.175941657590429 0  1.752057611265444 0.869642097111018 0  0.612251684107783 2.356045720700959 0  1.902817102342857 0.6607642211999982 0  2.159616561739693 0.7867739969338844 0  0.5120038350106624 2.197302352398502 0  1.888200216011548 1.919501662489862 0  1.495909909726654 2.16028358757309 0  0.489139876703609 1.443203008943564 0  0.8819175670410521 0.3301172743913011 0  1.882591144370812 0.8155965192707721 0  1.133979796994841 1.172526771862882 0  2.206217447916667 2.084147135416667 0  2.20361328125 2.36279296875 0  1.395746985657004 1.556054166359645 0  1.704383111516207 1.734750450338683 0  0.9575737847222222 2.36274223823052 0  1.035150984253136 0.1302833343179028 0  1.383966125325753 0.7651479963479179 0  1.64003252158672 0.6824316405528895 0  2.22550785055421 1.487078576356817 0  1.760964431499756 1.48495222505201 0  1.276460980673788 2.004207003584658 0  0.1341477688427096 1.828777507920502 0  1.542261434180652 1.155296658359034 0  1.334627911613854 0.9696897472490321 0  1.30794231473696 1.119420615785191 0  0.7028260459857245 0.4438906910721139 0  1.625757433094055 1.84268057552138 0  0.9818707849053143 1.165603626132254 0  2.0086489901463 1.243134585689553 0  1.934584460420609 2.374094051915812 0  1.798434376789567 2.38671361912528 0  1.206314791201715 1.382064292497919 0  0.6333752893366955 0.7023738550008095 0  0.7796219811205605 1.42573253164258 0  1.564399711917382 1.026040828857629 0  0.3385416666666666 0.4889012896825397 0  0.1041666666666667 0.390625 0  0.989112246382566 1.543537365516289 0  2.025724425454636 0.9846960595520872 0  0.6602885475034063 2.086117390485779 0  1.607130551925032 1.267198646640915 0  0.1317864544877056 0.8896173683400176 0  1.755387840017567 2.230364320056445 0  1.301540702984401 0.1216289692748247 0  1.433170657577442 0.3331052752740999 0  1.500459610550388 0.113513924782439 0  0.6494291520606965 1.029586599619295 0  1.010146149868299 0.794897284196169 0  0.3700844198238017 2.235390157870766 0  0.3360891767780704 2.36656279435396 0  1.876856241037701 1.437150669863757 0  1.778674102957329 1.245979347269706 0  0.5472829890977179 0.1005517127039925 0  0.4669074189005698 0.3416784232954367 0  1.472765289289269 1.850899166481903 0  1.555853593327178 1.608452097912802 0  0.6708955559113426 1.646561631116984 0  0.8164699620322933 0.5924479455478063 0  0.3167738989468366 1.758696809749795 0  0.2788007305565096 1.605499483471246 0  0.7821720982350511 0.181524936294752 0  1.376812251214195 2.313340247908297 0  1.785652202614777 0.5962261755537186 0  1.761467296310972 0.4679567244718574 0  2.2265625 1.8359375 0  2.3828125 1.9140625 0  0.5279531607054191 2.071552361614785 0  2.397573269551114 0.234375 0  2.383578172599618 0.3589298466020009 0  0.1024267304488855 2.265625 0  0.1164218274003825 2.141070153397999 0  0.2696857594953064 2.135405441512016 0  2.164961300137334 0.1375322943529536 0  2.137757548369486 0.2724194778647587 0  2.238873711826398 0.3626419179496562 0  0.1001414910226386 0.234375 0  0.2176339285714286 0.3478422619047619 0  0.2503620791333544 0.1061694061057066 0  2.336445461915368 0.1250451055247424 0  0.2154004640409726 2.3918124
[...]
<PointData  Scalars="f_49-1"> 
<DataArray  type="Float64"  Name="f_49-1"  format="ascii">1.7328810348411088e-51  1.5296190452025887e-07  -2.8526942696287719e-58  5.0178323282897864e-71  5.9651472853497402e-29  2.4253233281997479e-61  -6.0873689307658177e-60  -1.1443618200182047e-20  5.6518927089025233e-31  3.6380610494242074e-07  4.1260308983226312e-15  3.4910231624004860e-55  5.7737540559474058e-36  -8.3274445669753163e-63  -7.2609123669076369e-45  -1.3853269815470052e-66  1.1000448154728007e-63  -7.4261038427017083e-42  3.5244470301800790e-37  -6.3303645458318643e-19  -2.2507663435565805e-48  -4.1669274465341770e-22  8.8441955084135230e-44  5.0377700086651907e-08  2.4329030538683287e-56  3.4209777824323839e-29  -2.6920036077207616e-31  7.7472711536550912e-49  -3.4442854187505323e-52  5.3265530027650456e-53  -1.8132125157673211e-45  -9.4232821006126268e-41  -4.1886846669139220e-14  3.7033379750509070e-53  -9.4374964484185254e-28  4.0916266554123422e-30  1.3816186772866562e-41  1.4171786739469996e-22  6.4509650438218510e-39  -7.6306878030330667e-57  3.4788438241246980e-23  6.4600214113463796e-53  3.6029576335122706e-12  -1.6057031298495766e-05  5.0209182282543844e-68  3.7715436269009217e-67  8.6769103206221543e-21  8.9256324002910473e-15  1.2326733145328911e-49  1.4304387294365742e-37  -1.7008135368164350e-23  5.4233977032692279e-54  -5.8291368364502759e-52  -7.7114204981646322e-62  4.9529350587828711e-14  -1.4447844085260636e-28  -2.6804764404615063e-56  -7.2317643532997707e-62  7.1380246446011542e-44  4.7571996251183665e-61  -4.7634581604307244e-64  2.3790613297336413e-15  -3.4811154155984966e-41  -5.2308728516169005e-52  5.7388592853929742e-36  -5.5091208518896920e-36  2.7434860154124641e-28  -2.3165316368743614e-50  -1.1762096314247817e-47  1.2696894545024582e-44  -2.7488043258682714e-33  4.8356865215731476e-34  -1.5319145807641849e-32  2.6514949261437795e-04  -2.6817403892775555e-11  5.6781978738916030e-13  1.6272177984685998e-60  6.2149195118954452e-63  5.5216347819873502e-58  3.0935634757395224e-33  -1.6069268029771298e-05  3.4968897363218316e-24  -1.3898575375549658e-46  2.9948871489661957e-37  6.5451879314666148e-45  -5.5270774166701417e-58  1.9996178477187420e-55  -3.7506669455106917e-41  5.3153096544916534e-41  6.9902265410881430e-48  7.2941016903999847e-50  -2.5853771124267918e-56  1.2651060805627620e-52  9.4327340607013639e-58  -2.2983706004406461e-53  -4.3607185831749338e-36  -9.7025347898761268e-25  -1.5067805928172196e-59  -2.9493819883032843e-47  8.6996897810235132e-51  4.7889162857394565e-43  7.6463644487649520e-48  -5.7678614927796935e-44  2.1520840467655345e-35  7.3627307148668005e-39  5.8561562412024716e-08  5.4700767940360936e-10  2.0855726076122522e-17  -2.6213148202842440e-54  -6.1068002248749688e-62  1.2561318667606300e-32  -2.7830083922259443e-17  1.0821371945407315e-15  1.3940938076504173e-24  4.8832593770898524e-19  -2.6703703100152333e-23  1.3081792964380319e-27  2.4569362264322916e-49  5.6008552591547728e-53  1.6916185733512846e-42  1.5285090279276028e-23  -1.8297309766120460e-51  2.5723085070303625e-65  1.9418236324169881e-28  4.4088360881989505e-28  1.6440537246992697e-69  2.4225751645188043e-11  -1.0455379696551484e-59  -1.6644461745092452e-55  -1.1254015204535704e-38  -5.5231954326537223e-16  1.1089469452891248e-43  1.8843427236719642e-32  4.2692695762254665e-36  -1.2218801629825963e-44  2.7907720611485782e-40  3.2716174049509884e-40  3.5841134535798259e-11  1.2723930785300720e-34  5.9630021726729712e-19  4.1699649621342833e-21  -2.1935731428797413e-28  -7.0358604776457565e-28  -3.6565519017495643e-27  -2.0844091474240796e-61  1.8448328472382164e-59  3.9092358699774912e-69  1.7411395016514807e-57  -1.7854820688712946e-37  2.4736839501603595e-53  3.5049925116035869e-33  1.8679652949257083e-05  1.6914410081120213e-18  9.3087330072254582e-62  2.8606922010535227e-24  5.4927986101661652e-32  1.8363474066706285e-50  -4.1770636870076884e-48  1.7227178894718298e-40  9.4958967175487489e-45  4.3607448526221992e-64  -1.3161418802300833e-48  4.5629736757154426e-57  -4.9354771044618554e-55  -1.3588186012509923e-59  1.4625251754054162e-52  2.6306633123204113e-48  1.2775096202137258e-21  3.1344104375363747e-17  1.4627178638207695e-24  2.2571728914063683e-12  2.1477751049383025e-15  9.7194844055827950e-49  1.7783459851007882e-09  -3.4182457713347990e-07  7.6168103553744741e-57  4.8273192474432496e-16  2.9484919711521618e-20  1.9974265840386932e-21  -6.7428577565342281e-26  1.2539911727929576e-44  2.8248120669960659e-39  6.5194011802685537e-55  1.2989024014367970e-57  -2.2344705733999804e-56  5.8236440430916378e-55  1.7729621981012121e-62  -8.4648722573854480e-58  -3.5920506156836864e-62  1.2919642824744412e-61  4.0129286715819351e-49  9.6150637384225977e-63  -2.6577774344207404e-33  1.0133028952405613e-12  2.9284994129414263e-05  -4.8860471869297848e-24  1.0774774027099388e-32  7.1335180333892872e-40  1.6543565530126950e-64  3.6573617688314461e-67  -6.8506106047697066e-52  -7.8445739091620696e-29  3.4310863336523149e-66  -3.3111873462214360e-44  -2.8170879792250254e-32  1.1638718153140494e-36  -9.2545524931696672e-41  -5.0972149738526196e-47  1.0340090938464240e-10  3.5727975175566494e-08  -2.5457514216354563e-51  -5.2229552343864087e-51  8.1515624570155130e-42  8.0340731135229942e-54  4.0160424425275979e-50  4.5880702810719972e-10  -1.0504660611663173e-49  4.1920795243313653e-37  2.6420752290961752e-35  3.3047448347537698e-58  2.4493477966190432e-40  -5.5735195857751289e-52  -1.6798716143921995e-48  4.9956014478273109e-52  -1.1553753717511341e-46  1.2138735644140769e-52  -7.1369058220240602e-52  2.2357532806461881e-27  1.4287441664326152e-18  1.1775852104363976e-43  1.0912721702434101e-27  1.1237075064373692e-60  5.3722186315161508e-65  1.1822942390978686e-37  2.7241685586240448e-46  -3.5267215958498707e-54  -1.7650546066463688e-24  7.9569650703246570e-31  -1.1345227433273107e-37  4.5507118046273526e-56  -1.4687662255916029e-44  -1.5757459711607795e-46  -1.1798821587009430e-36  -1.5256495529953945e-36  -2.7929361516952056e-30  -1.7462640942779412e-31  5.7495374482376447e-14  3.2597168866959009e-46  7.3881599401796506e-25  8.6162206601308688e-49  1.2521662093923553e-61  1.0299208673482190e-60  1.4142339371392169e-31  1.3682986288295673e-12  -5.7148826588125894e-29  -6.2387514763142187e-36  1.3228245698738588e-05  1.3565835583825331e-03  2.1971420647302749e-33  2.9573619295402878e-48  -1.0889746202374103e-44  -3.0654433994379930e-39  9.4416776940184753e-13  6.7040303782032629e-56  7.2077941190932411e-31  4.0228922255872726e-33  3.2658020687944624e-36  2.2376481221524240e-19  2.8306132620896381e-22  1.6429145173173995e-47  4.5772931837424186e-51  -7.4588567477129862e-48  -8.3143317979608449e-44  1.2808742765851635e-13  -1.2113824437773188e-08  9.4526700437113519e-45  6.5331413653092650e-42  6.4792477425725759e-34  3.8774438224193038e-16  -8.1586975531071395e-35  -4.1929418181863525e-30  -8.1017406008523477e-18  -1.2457469856704869e-55  1.9996762659819990e-42  7.4452039069211171e-42  -8.8634623164310465e-60  -7.3858631705279340e-64  -3.7392807429112366e-43  -8.3674273031005144e-59  5.8105073838594599e-59  1.5287984911844181e-46  5.2107948973057597e-43  4.4733553909514608e-44  3.0383878065607495e-52  8.7666635942100394e-53  -1.8106516909939143e-55  -2.4210081307841487e-04  1.2353154965319649e-03  3.4763740295370953e-09  -4.6497101378438423e-56  4.3118759780212105e-50  1.4745142074816021e-50  1.5426598759706528e-08  -2.5102521908577069e-41  -5.7531382645395292e-22  6.1012054069280257e-26  -2.2741680690728761e-28  -6.0910379167105515e-41  2.0343339503161631e-41  1.9472962015796134e-21  2.9447785609596965e-38  -1.6095958844498013e-46  -2.0899564513748536e-58  -1.8454975526332582e-59  7.8797008311493820e-66  1.2141052266196662e-10  1.0465356410587616e-40  -1.2900224153521752e-38  6.5831086844449931e-35  9.4908742352145219e-56  1.0039184364697771e-37  -3.3432811444137849e-44  1.2873231006138572e-13  2.3960597305972409e-35  -1.0812330839998988e-38  4.3749569317823980e-53  1.6156304282037545e-21  2.6269706905205432e-54  -2.2476027769954635e-50  -3.5226939717735018e-20  -2.5862274885010027e-58  4.3282786917319173e-09  -1.7111057906937969e-24  2.7690071341291272e-54  2.9430251312630907e-54  2.2835530341560752e-48  -1.9592654006524740e-56  -3.0144798057948420e-27  -1.0468231300971408e-22  -7.7509008945357492e-62  1.4524368139688047e-56  2.4665640831701248e-21  -1.8962003000933342e-39  7.0100637038523609e-38  1.4310287451337887e-55  -1.6386164183900589e-43  6.4653870219045228e-62  1.1206418874625082e-50  -4.2980233818033813e-34  -1.1513489996105223e-53  2.9072086160635626e-27  1.1855179871551106e-10  1.0104495712626931e-07  3.3191776297805226e-06  2.0661600028253623e-39  -6.0178239199559520e-31  -4.2756713393041958e-19  4.7997876287979088e-60  -2.0214060341757077e-60  -1.1528683061041928e-57  9.5648507905703833e-50  9.1813921498815800e-69  -3.0634910572005279e-50  2.0272271014887724e-53  -1.1001656375749579e-30  7.3875288981970344e-65  3.3540708131863498e-37  6.8979504290973787e-53  4.8756781032254948e-46  5.0326489624663532e-42  2.5459122530353749e-33  -4.5449328577625801e-26  -1.0453381302628600e-07  1.7407782403047264e-60  1.3600086137180452e-40  1.7556629601646875e-25  3.3065095927249425e-27  -3.5669227999775550e-59  1.0512397150805795e-15  8.8720662344456007e-19  6.7935458985407858e-17  1.2616365073187245e-21  2.0877821144912695e-46  5.2646869732917367e-27  -2.5368163034760982e-39  1.8377849599941558e-34  -9.3334948009847680e-44  2.3009583926262995e-47  -7.2905993174822661e-57  -4.4783205401025917e-32  -2.6795446031239148e-29  -2.7115383801339962e-13  -1.5155993526803230e-49  4.3237241297216295e-14  9.2077398737180497e-20  6.3653389908701548e-59  9.3035739189119560e-37  2.7506005803870683e-39  4.6098460373075557e-60  1.3628106932584887e-29  7.3648464640780619e-06  2.9625153951988078e-15  1.0210972544675390e-46  1.0185086149008511e-50  4.4354146713900624e-36  -3.7939240669193267e-51  -6.8373557721092248e-58  4.3322839959284815e-31  2.9924294414039833e-13  -1.3622099160312822e-56  -2.4557927983806479e-25  3.6607251340251986e-28  -1.1675370804296790e-25  2.0860693086952679e-54  9.9690510334873748e-35  2.2983676842912012e-30  8.9312183133560352e-46  2.6764572494969634e-09  -4.5040923964893020e-20  -2.2900757405750927e-56  4.0275771168063597e-29  4.5135265534365675e-46  1.2361209714103408e-50  2.3267702723118900e-54  6.1210900196769750e-26  1.2070931420146885e-21  6.1364271136857208e-39  2.8792933928626850e-46  1.3602341666288472e-50  2.7001261574319367e-54  8.2434804934540212e-17  2.7308872958928404e-34  -4.2279366452939264e-54  -3.0957313970107836e-50  -1.3821517537466746e-49  -7.0773071724855163e-30  -1.6085882356854992e-43  4.9857208188482641e-33  2.5346959187335403e-49  6.3337020866322072e-18  8.9867419485254881e-56  -2.8202218640419021e-33  4.1593503086226155e-24  -3.8292886024380103e-44  4.3682210303747495e-67  1.4023474353905255e-16  1.0497214099790720e-43  3.6033179002534671e-31  3.9425580192528150e-21  -2.3589749642337064e-53  5.7570589326952265e-38  1.8624610671973367e-17  -2.8895731945873081e-53  8.1279380149230439e-64  -4.0586967712335159e-56  -4.6835345273248662e-58  -1.6918298695846416e-21  2.6561480711774054e-10  9.3648043826862263e-31  1.0959072612024776e-10  2.3673593929155886e-42  5.1071745552924363e-37  1.6110336367077990e-22  -1.5942067885718515e-50  1.3075783968768563e-49  1.4707779806596834e-25  -3.9095624199344921e-52  -1.8287881719008755e-16  3.0995002208339275e-36  1.4005373196320360e-08  -5.8520613925104637e-47  -3.9549286816024976e-15  -1.5829824378249901e-17  -8.4401130366462353e-26  -1.3733829374994304e-30  -8.1914892466882301e-32  3.5549731029713858e-41  7.7414284367549347e-44  6.9928258295296758e-38  1.0421918153653793e-11  3.7762868054755857e-54  1.2072707818968788e-60  9.8084095054676604e-63  -2.8999044657509262e-49  -2.3139870622821660e-22  -2.5687216634353729e-61  -7.3128156822980437e-15  -8.7043874657150663e-25  -1.0211834329778138e-25  -1.1863218503887466e-45  2.3183188787685809e-30  2.6169492522776667e-33  -4.2320465806138389e-54  3.7028742930568303e-35  3.9032379850162773e-61  2.5613487038426526e-58  -3.8114076224063246e-47  7.1268036758644920e-56  1.4575027546110148e-38  2.2280532229680595e-58  7.4982144903370439e-48  -1.4555944353757429e-38  1.4472695722886989e-28  5.2097774336293751e-13  2.4793308662100442e-62  4.1315789285751814e-61  9.2200559121032181e-56  -1.1089876059465354e-22  -2.5119824151678888e-37  -7.8018366292873951e-35  1.7738643531957990e-42  3.7577688886565819e-63  2.4308810084111051e-21  9.3443970428998758e-50  -6.7700760727160681e-20  -2.1065943476804306e-18  3.1614456234283942e-48  5.1681541453266554e-34  -3.6823514744957160e-41  8.8623728284887235e-53  1.9434326043732367e-52  2.5040276393990723e-27  -1.0690718017048640e-16  2.3759530488581392e-31  1.2930395342366700e-57  -4.7371777017352507e-48  -3.3400182491256955e-41  2.4846397650793493e-42  1.5605450221906810e-43  4.5261933369922715e-49  1.6511197076450893e-40  5.4834759765706894e-56  2.3071396324195393e-51  1.5914995518934015e-29  -2.4348485043524439e-62  4.7656056158526721e-50  4.8849699480255627e-50  9.5159869152425098e-47  -2.7713627576817786e-64  -1.0592289881611526e-62  3.6213997793702653e-63  -9.8749010993243113e-59  5.0398023976784055e-49  -1.4989319133746143e-51  2.1461890685230992e-18  6.8399652163806131e-19  1.6931246816554957e-38  3.4177554904352944e-55  9.5734394086569283e-60  -2.5515100902584270e-41  4.5573019941909239e-66  1.8630685168421767e-62  -4.9757127857769956e-30  -2.4932473161423337e-32  8.0541836646253983e-57  4.4705853490841697e-45  -1.9502288206449413e-37  6.2462012478724544e-19  4.4504169572014220e-51  1.7465734721323734e-52  2.7232773673413832e-54  4.3839515364724784e-05  1.8642616487304112e-04  1.2005535985721559e-06  -1.3328053752179588e-41  -5.7022285865155076e-58  4.9351679380647307e-45  4.2224749293554007e-12  -2.9263647949492511e-60  3.0334583828807408e-48  6.4263128014335345e-36  -2.2307127579462980e-40  -8.5559432043528714e-51  8.7899365445926351e-68  5.8507248331879581e-42  5.5094979933749309e-58  4.4734495748154826e-65  4.6656173354298272e-14  -2.4106635323387507e-30  1.6424366610809327e-39  8.1665267494848745e-56  1.3669963236641631e-59  1.2492032488784999e-37  3.1963661196141707e-48  -1.4647237812988000e-13  -1.9463792515492846e-37  -1.1887912424796510e-66  2.5206157282606299e-32  1.1287048115209931e-15  -2.0785112758794301e-27  7.3830187533614021e-45  7.2204784964290686e-23  1.6669967595853653e-29  7.2431494606332703e-23  3.7478959141490628e-56  -5.4930683822877313e-44  1.6985477093965202e-07  1.8193767791418856e-26  -7.9519919037962970e-13  6.0838714171766587e-16  -2.9423933693119577e-15  3.8984977777320612e-10  -8.2886580847392063e-10  -5.7001951483081147e-60  1.4079038377106202e-62  1.2569970099562513e-33  3.0949001135294621e-31  7.7814105535018863e-32  1.1716073396988266e-26  5.5449597070951675e-03  3.1994923318762622e-48  5.5957761724889834e-56  -7.5286937123668150e-25  1.6013089047477520e-58  4.1987251996849070e-56  2.4452205527038852e-62  9.4552376598736368e-47  3.3797858650465369e-60  2.6215560825974793e-24  1.2358112356457361e-54  1.6388545084145130e-32  -3.6349426949762503e-53  -3.3532125808258111e-54  1.1638378916485612e-08  8.7112345653929844e-07  1.1408781188934430e-56  2.8210155913156255e-31  1.9763537247760729e-64  -4.4227044475652671e-07  7.3597059901966440e-42  4.0477582682871729e-61  4.3845818978066044e-14  2.2259538417075979e-14  3.4736005361475205e-39  -2.4295789918175133e-52  -4.5526207162321259e-34  2.4592525503214270e-23  2.4469555530304466e-63  2.7930066645253494e-11  -2.8963602548640093e-53  1.0200857987208120e-50  -2.1378819939503587e-22  1.1149988579614303e-51  1.2460011962648658e-06  -5.2585445852751633e-33  -7.5111139968795965e-49  2.0338861594899475e-45  1.0129058970720148e-40  7.0442884843364971e-56  3.4832247619378857e-42  8.5678999786533897e-41  1.5930843700910918e-26  7.8248247825901329e-43  -3.5633094055107687e-51  5.8551908974585695e-59  1.7471798405470313e-59  2.5225622621669644e-44  -9.6615687500071794e-21  -2.6789361480100572e-57  2.0167625014347976e-61  2.1091150930408000e-28  1.7808672473466405e-68  1.5983591605168122e-56  3.5841413659081328e-66  6.4850044811328561e-50  5.5931980342283791e-52  2.9639796819261368e-59  -7.4903053059454737e-31  -5.0017789982362358e-56  1.3871020277611437e-63  -6.0084226919016326e-43  2.0810126635307302e-38  8.2012607513012698e-63  1.1247950484594624e-61  -1.0046875836540353e-63  -8.7061514623058852e-16  -6.2852554629407250e-19  -2.4064301619440866e-22  4.5356151659464876e-58  2.4697243724589353e-08  1.7697067565970954e-21  2.1358004047849345e-47  5.6759251649579444e-38  4.8570722173258373e-53  2.2568046603585010e-10  4.5752910171297084e-46  -1.4024259986824566e-60  1.1085427572407774e-13  -6.2797068558466893e-35  1.2682606814513769e-05  7.2745873684342222e-05  1.1886879408886362e-62  3.8829320846914567e-69  6.7555424135299662e-70  1.4589869190998751e-70  -2.2567424028303745e-26  -5.0283580364972570e-60  3.5820475245933468e-06  3.0066161181584402e-65  4.6879429142788882e-67  8.9865736715036286e-62  5.0093212798140850e-45  -4.6361345902435698e-51  1.1148423275754360e-35  5.9293413580873344e-55  -3.9951757978854728e-33  2.3233149948846900e-57  2.4149671135706685e-11  1.4209631374136310e-10  1.1637674357507739e-08  -7.4843389091864918e-59  3.5324155830505239e-12  6.1147105807600178e-18  5.5428960608136378e-07  -2.9340419885418958e-41  2.4185092816412454e-25  9.1415715254511272e-23  -5.3999410235579136e-47  -7.4377706202962764e-27  -3.7194415301185200e-28  -1.9801204813312687e-30  -5.7511570170494344e-23  3.9047049225724729e-09  9.5921590034773182e-06  1.0842430841215099e-54  4.5763985820468528e-47  3.0940806586616659e-43  -6.6098893590467964e-54  3.5765181358330265e-13  3.4345573664570013e-62  -2.9047835143602126e-28  -3.1048911734356369e-46  9.3417204479238703e-26  4.3006991415825238e-17  1.8745440300621588e-36  2.7421904410653130e-44  -2.1084090188497040e-33  1.2377444701593187e-19  2.5156340892175427e-23  1.2718944682534104e-47  -1.0277316714671944e-55  -2.2157175030026477e-15  2.2537588049564254e-52  3.6197876804275193e-54  -3.4780852799984211e-30  -1.6969519157414303e-41  1.4607460931612774e-17  3.8514337631958270e-43  2.7716898925015821e-12  3.8366315940069791e-58  4.3800265761910725e-34  4.3357726095053755e-36  1.3552878887492262e-51  -3.3247997958524482e-48  1.0357212090845789e-48  1.3424531097454338e-53  1.5311093317846568e-50  -2.9533501697225720e-46  -1.3211876889409979e-24  -2.9795899906288637e-47  -1.9620811271045851e-36  2.1646772401069153e-29  -1.2363022598564335e-37  -4.1297693483936160e-38  -5.1628213151403889e-57  -3.7429333510978980e-34  1.2258899371239774e-43  -1.1630860235409086e-44  -8.7565355928622887e-43  -2.0280300622787977e-45  -1.2304436910130939e-30  4.4437487848748974e-32  -4.2316915849776121e-34  1.1300482021533499e-25  -1.2109634315711534e-53  2.0132488814242317e-51  -4.7103807656678461e-53  -2.0763403055635888e-47  1.6441997682270514e-46  1.8069270159450437e-48  -2.9695955500851208e-56  1.3666946077989459e-39  1.5114568278870031e-34  2.3318953641488965e-57  1.1566335225739547e-59  -3.6096478893173880e-54  -1.1375291089331529e-37  1.7511765112540090e-29  3.8620956933461319e-21  -6.9674216589575766e-41  1.2280901428577821e-48  1.4445593724476955e-17  2.1482595207318857e-31  6.3238871783455293e-58  1.2439389404904030e-11  1.7555502391347883e-46  7.1290429448274900e-58  1.1867650675627757e-57  8.6358446701692957e-65  -8.8479668830035443e-52  1.3533749814083604e-51  2.0499054037410992e-27  6.6432477585609507e-39  3.4228065094536622e-33  1.4506856167505886e-23  1.0617097170433310e-49  1.3037238251748724e-52  1.1437821717511364e-38  -1.1310013934005941e-57  1.9562953607886320e-25  3.0571115273395059e-36  6.9295735631134001e-28  8.3883847819917366e-26  -2.7870502388377282e-49  1.2024527535821706e-53  3.9527963297960901e-47  7.1671586184891910e-53  6.1451141995813926e