<?xml version="1.0"?>
<VTKFile type="UnstructuredGrid"  version="0.1"  >
<UnstructuredGrid>
<Piece  NumberOfPoints="6486" NumberOfCells="12696">
<Points>
<DataArray  type="Float64"  NumberOfComponents="3"  format="ascii">0 2.5 0  0 0 0  2.5 0 0  2.5 2.5 0  1.25 0 0  2.5 1.25 0  1.25 2.5 0  0 1.25 0  1.25 1.25 0  0 0.625 0  0.625 0 0  0.625 2.5 0  0 1.875 0  2.5 0.625 0  1.875 0 0  2.5 1.875 0  1.875 2.5 0  1.770833333333333 0.7291666666666666 0  0.7291666666666666 1.770833333333333 0  0.9375 0.625 0  1.875 1.5625 0  0.642361111111111 1.163194444444444 0  1.341594827586207 1.883979885057471 0  0.46875 0.46875 0  2.03125 2.03125 0  0.3626104797979798 1.513178661616162 0  1.381740196078431 0.4564950980392157 0  0.9375 2.172619047619047 0  2.172619047619047 0.9375 0  2.096354166666667 0.4036458333333332 0  0.4036458333333333 2.096354166666667 0  1.684027777777778 1.163194444444444 0  0.3418803418803419 0.8693910256410255 0  1.642742622813391 2.162164207604464 0  1.275619849389031 0.8465650753054845 0  0.9136284722222221 1.434461805555556 0  1.732437511238546 0.3406962303960658 0  0.9714402568595876 1.029779313093998 0  1.52281746031746 1.485615079365079 0  2.1875 1.71875 0  1.06819722569879 0.2997236128493951 0  2.136114211309524 1.303478422619048 0  0.3125 0 0  0 0.3125 0  2.5 2.1875 0  2.1875 2.5 0  0.3200021620376328 1.192323085056694 0  0.6738456129277992 0.8304377375553881 0  1.757891808928991 1.861952730357003 0  1.5625 0 0  0.9375 0 0  0.3125 2.5 0  2.1875 0 0  2.5 0.9375 0  0 0.9375 0  0 1.5625 0  0.9375 2.5 0  2.5 0.3125 0  0 2.1875 0  1.5625 2.5 0  2.5 1.5625 0  0.7448220909826522 0.3003573636608841 0  1.027298850574712 1.871151477832512 0  1.331260495098891 2.197262878816185 0  1.207917681892289 1.582765010956622 0  0.4339993447432606 1.801186844743261 0  0.6337298768939392 1.443093039772727 0  2.049851190476191 0.6826636904761904 0  0.6584821428571428 2.219122023809524 0  1.89575676467455 0.9798457973793544 0  1.437570562095628 1.059380588255917 0  1.502090052505845 0.6987070896496241 0  0.2040860661083546 1.705323965099331 0  0.2083333333333333 0.46875 0  0.5070952039991439 0.2211150679997147 0  0.6916302856529919 0.5813591430410241 0  2.265625 1.953125 0  2.2265625 2.2265625 0  1.886424081252096 2.243391360417365 0  1.40625 0.202164758520858 0  0.2269345238095238 0.2269345238095238 0  1.152730869673694 0.5225850378741401 0  1.885631899587912 1.312095130148776 0  1.614808884009367 0.9049784971014416 0  1.890095442220658 0.5126535558463003 0  2.323168682795699 0.46875 0  2.268811725689575 0.2304742875213018 0  0.6002389442105756 1.967426444210576 0  0.1768313172043011 2.03125 0  0.2311882743104251 2.269525712478698 0  2.03125 0.176831317204301 0  2.280262553344767 0.6954945504579233 0  1.979219539285994 1.809922269642997 0  2.336309523809524 1.09375 0  1.09375 2.336309523809524 0  0.9314042474388009 1.662973812215543 0  0.1634067999087722 1.40625 0  2.337090640094896 1.40625 0  1.141616997467638 2.069311773587991 0  0.46875 2.338939559681489 0  1.542440307908715 1.734944797244472 0  1.556713687786879 1.956977865354753 0  0.8264238995344066 1.975424467820646 0  1.466326331454725 1.275271369760862 0  1.655675324257095 0.5444159974393489 0  0.3385416666666666 0.6479255698005697 0  0 0.78125 0  0.5236073939200119 0.984090461540625 0  2.091665741047893 1.519793517904215 0  1.71875 2.5 0  0.5356538886262603 1.623137930505009 0  0 1.09375 0  0.1932884281517095 1.015625 0  0.8569313582417669 1.2198915584249 0  0.8876981284879677 0.8329884081524883 0  1.115618488474214 0.7219586973356271 0  1.186950366204949 1.043465130075318 0  2.057459118787237 1.110823087309335 0  1.830651283878689 2.049810069572418 0  1.689107969301489 1.367247437031697 0  0.4921048768039656 1.298643370653124 0  0.8213975694444444 2.336309523809524 0  2.03125 2.5 0  1.049729400480002 1.283723261332814 0  1.308101375801673 0.6489479469700392 0  2.5 2.34375 0  0.4968777175037714 0.7562964879736076 0  1.40625 2.5 0  1.501347663534097 2.307027627307738 0  1.602813712048603 0.1926218191360736 0  0.8393082906308107 0.463778306132633 0  1.682663349152719 1.598471865581041 0  0.7774174680851571 1.560004941327907 0  1.554204170364662 0.3898593897892066 0  1.842184459051087 0.186443880058197 0  1.358107417651776 1.696381759610015 0  1.18859291992392 1.77598670078022 0  0.1875331222687418 0.7609599743339348 0  1.339536743965101 1.422080365801479 0  0.7788179348750389 0.9955343414928611 0  0.9062978492805438 0.1919636509126373 0  1.256007360640958 0.3160320559396114 0  1.09375 0 0  1.174986727221844 0.1594990293443933 0  2.34375 1.796875 0  2.318026474511116 1.589177949022232 0  2.34375 2.5 0  1.672742954892153 2.332882724550692 0  0.2683637361947215 1.874801596909639 0  2.174770749820102 0.5581009131310781 0  1.443279522965991 0.8870068372898454 0  0.3385416666666667 0.3571428571428572 0  0.78125 0 0  2.060421048269335 2.314363248763811 0  1.088078737088509 0.8967352118723447 0  1.087825368444708 1.454931510884769 0  2.018308232129541 0.8548495425854904 0  1.943987311736842 0.3246298523011434 0  1.71875 0 0  1.85337849796276 1.144833312386208 0  2.3486328125 2.1044921875 0  1.407588788651747 2.042968789119587 0  2.336309523809524 0.865366648092144 0  2.34375 0 0  2.5 0.15625 0  0.15625 2.5 0  0 2.34375 0  0.1638044648294291 1.242263417405867 0  0.356216654757926 1.032569427322806 0  0.3188217956111817 1.355736727000647 0  0.5924956460852111 0.36112522004736 0  0.6594216488965849 0.1603472116132387 0  1.841804599497131 1.72214349266521 0  0.15625 0 0  0 0.15625 0  2.115898634821499 1.894570904464496 0  0.7821877980253907 0.7129993435924866 0  1.003820447087786 0.4516053462784233 0  0.477562948779147 1.138333049293613 0  0.719493678605015 1.305655360135975 0  0.9772457618587566 2.020350128938537 0  0.8764738248887107 1.826219722709673 0  1.254787875123819 2.339010653832026 0  2.343597354852534 1.249982759769001 0  0.78125 2.5 0  0.46875 2.5 0  2.5 1.40625 0  1.09375 2.5 0  2.5 0.78125 0  2.5 1.09375 0  2.03125 0 0  2.5 0.46875 0  1.40625 0 0  0.46875 0 0  0 0.46875 0  0 1.40625 0  0 1.71875 0  0 2.03125 0  2.5 1.71875 0  2.5 2.03125 0  2.005424054645407 1.653223486966518 0  0.1538730573856537 1.559850281736677 0  2.33984375 2.33984375 0  1.166539506212474 1.922878979538754 0  0.3914885633949916 1.65887232812171 0  0.5795503163042564 1.766243562569382 0  0.399533125920212 1.946786875081388 0  0.7866324979014098 2.127719094551316 0  0.3654683023546834 0.1495701132219454 0  0.1527388747131078 0.6116379440619215 0  2.013737577140188 1.391056634712135 0  1.17635437372994 2.213329084238133 0  1.737118141866284 1.010577140843115 0  2.200707118087222 1.164723314085963 0  1.697018908736685 1.993548551451517 0  0.5387621649009668 0.6070503962352419 0  2.032805785855952 0.5330427622570983 0  1.082699501358059 1.667818725183932 0  1.503819781540653 0.5468420196858188 0  2.015409142866072 2.175941657590429 0  1.752057611265444 0.869642097111018 0  0.612251684107783 2.356045720700959 0  1.902817102342857 0.6607642211999982 0  2.159616561739693 0.7867739969338844 0  0.5120038350106624 2.197302352398502 0  1.888200216011548 1.919501662489862 0  1.495909909726654 2.16028358757309 0  0.489139876703609 1.443203008943564 0  0.8819175670410521 0.3301172743913011 0  1.882591144370812 0.8155965192707721 0  1.133979796994841 1.172526771862882 0  2.206217447916667 2.084147135416667 0  2.20361328125 2.36279296875 0  1.395746985657004 1.556054166359645 0  1.704383111516207 1.734750450338683 0  0.9575737847222222 2.36274223823052 0  1.035150984253136 0.1302833343179028 0  1.383966125325753 0.7651479963479179 0  1.64003252158672 0.6824316405528895 0  2.22550785055421 1.487078576356817 0  1.760964431499756 1.48495222505201 0  1.276460980673788 2.004207003584658 0  0.1341477688427096 1.828777507920502 0  1.542261434180652 1.155296658359034 0  1.334627911613854 0.9696897472490321 0  1.30794231473696 1.119420615785191 0  0.7028260459857245 0.4438906910721139 0  1.625757433094055 1.84268057552138 0  0.9818707849053143 1.165603626132254 0  2.0086489901463 1.243134585689553 0  1.934584460420609 2.374094051915812 0  1.798434376789567 2.38671361912528 0  1.206314791201715 1.382064292497919 0  0.6333752893366955 0.7023738550008095 0  0.7796219811205605 1.42573253164258 0  1.564399711917382 1.026040828857629 0  0.3385416666666666 0.4889012896825397 0  0.1041666666666667 0.390625 0  0.989112246382566 1.543537365516289 0  2.025724425454636 0.9846960595520872 0  0.6602885475034063 2.086117390485779 0  1.607130551925032 1.267198646640915 0  0.1317864544877056 0.8896173683400176 0  1.755387840017567 2.230364320056445 0  1.301540702984401 0.1216289692748247 0  1.433170657577442 0.3331052752740999 0  1.500459610550388 0.113513924782439 0  0.6494291520606965 1.029586599619295 0  1.010146149868299 0.794897284196169 0  0.3700844198238017 2.235390157870766 0  0.3360891767780704 2.36656279435396 0  1.876856241037701 1.437150669863757 0  1.778674102957329 1.245979347269706 0  0.5472829890977179 0.1005517127039925 0  0.4669074189005698 0.3416784232954367 0  1.472765289289269 1.850899166481903 0  1.555853593327178 1.608452097912802 0  0.6708955559113426 1.646561631116984 0  0.8164699620322933 0.5924479455478063 0  0.3167738989468366 1.758696809749795 0  0.2788007305565096 1.605499483471246 0  0.7821720982350511 0.181524936294752 0  1.376812251214195 2.313340247908297 0  1.785652202614777 0.5962261755537186 0  1.761467296310972 0.4679567244718574 0  2.2265625 1.8359375 0  2.3828125 1.9140625 0  0.5279531607054191 2.071552361614785 0  2.397573269551114 0.234375 0  2.383578172599618 0.3589298466020009 0  0.1024267304488855 2.265625 0  0.1164218274003825 2.141070153397999 0  0.2696857594953064 2.135405441512016 0  2.164961300137334 0.1375322943529536 0  2.137757548369486 0.2724194778647587 0  2.238873711826398 0.3626419179496562 0  0.1001414910226386 0.234375 0  0.2176339285714286 0.3478422619047619 0  0.2503620791333544 0.1061694061057066 0  2.336445461915368 0.1250451055247424 0  0.2154004640409726 2.3918124
[...]
<PointData  Scalars="f_124-1"> 
<DataArray  type="Float64"  Name="f_124-1"  format="ascii">6.5712022559395983e-02  6.7903066551249485e-03  3.7574279049457041e-03  3.4200817724463164e-02  5.7001331209551725e-03  3.7736251256246501e-03  6.5692380693611094e-02  6.7831388443868906e-02  3.7890372141586366e-02  6.8809231621824618e-02  6.7960073101259446e-03  6.5748852404681063e-02  6.6746614689925557e-02  3.6411119989723539e-03  4.6669341761903949e-03  9.5825710132165249e-03  6.0452533380561627e-02  4.9119722519118348e-03  6.6925653285836398e-02  1.4283955657233114e-02  1.8807661451784106e-02  6.6477083293447342e-02  6.2033659912940527e-02  4.0006685922687267e-02  3.5979526126616680e-02  6.7393288984140376e-02  5.5594381471445282e-03  6.6263183576382848e-02  4.1939797965709156e-03  4.2760044713384075e-03  6.6386073323508821e-02  1.0180748987887159e-02  6.8427352551920381e-02  5.9934370215659623e-02  1.1376423360233907e-02  6.4430330854709741e-02  4.8640789723631648e-03  4.2790295663538182e-02  3.4857783285662962e-02  1.2842740476607460e-02  6.1128828978374190e-03  5.6158479984267659e-03  7.1617361108426703e-03  4.5338832200921705e-02  2.0616078707541684e-02  4.9424637690648969e-02  6.7925551667126299e-02  5.3093530910928631e-02  4.2382719825071399e-02  5.1516821703534955e-03  6.2585945540334885e-03  6.5701782842699827e-02  4.1743690697334636e-03  3.6266226496064168e-03  6.8301298325878904e-02  6.7315190326153074e-02  6.5747462035927184e-02  3.6927940993432460e-03  6.6211537336489143e-02  6.4838048856869113e-02  4.9332528349680816e-03  7.5482730783536364e-03  6.6274348509310965e-02  6.5398947321317097e-02  5.8495052726815565e-02  6.6916718002750966e-02  6.7369319657891683e-02  4.3444000089573002e-03  6.6183006096634980e-02  5.0706989032805782e-03  1.4079699338739766e-02  5.7150871036720161e-03  6.7076513643347074e-02  6.6213450042319766e-02  9.6578894345249397e-03  2.7577580864863657e-02  1.9033951376785947e-02  3.5355829226691546e-02  5.3613069772034408e-02  5.4309487440598603e-03  3.0784947511088873e-02  6.5623267713432369e-03  9.3342809667846909e-03  6.4990478690706262e-03  4.6040426676310824e-03  3.8965480851552458e-03  4.0170613842662089e-03  6.6628808160080863e-02  6.6482950892938417e-02  6.6071276442972643e-02  4.4007452589997611e-03  3.9576404087547879e-03  2.6380528670952183e-02  3.9418748658957576e-03  6.5959913276524576e-02  6.6265958896688959e-02  6.7579005489990962e-02  4.8660809173318425e-03  6.6067241748141936e-02  6.5972434773508892e-02  4.8301322004118109e-02  5.6995196117013876e-02  6.6602499599952930e-02  2.4232926127666834e-02  5.0568650835749801e-03  6.6251020774048153e-02  6.8558455268019985e-02  6.6788502734486749e-02  9.6277921790492420e-03  6.3295832163330359e-02  6.7199617431724437e-02  6.8062559143796955e-02  6.8203786238934444e-02  6.1153908032481309e-02  3.3408124813999518e-02  1.1599550632135712e-02  2.7461397577314136e-02  4.8762978597424907e-03  4.7718651882365383e-02  1.7686695527366299e-02  6.7703655515530092e-02  6.5994285246387521e-02  5.5533414401167353e-02  5.3553787802835082e-02  6.5080903374894021e-03  2.7889823428698359e-02  6.2235431648363509e-02  6.5473161673148664e-02  6.4576486277497791e-02  5.0869351988290868e-03  1.0173405170452791e-02  3.1281294994612213e-02  6.6964439303892578e-02  5.2020732491645785e-03  4.6773321945858537e-03  5.6052937683097222e-02  6.3811295420397790e-02  6.8905851096456264e-02  4.2680322290911017e-02  5.5471683961764530e-02  6.3498376490281529e-03  5.7378273870232390e-03  5.9759515885728582e-03  5.8722222655711335e-03  1.0724830514664907e-02  6.9839083110962387e-03  4.1248866743664681e-02  6.2386680121363836e-02  6.6783023615125794e-02  4.1241878848015581e-03  8.4725959187728680e-03  4.3997345458840799e-02  6.5176141111706384e-03  4.8617654798651377e-02  2.3257954920895448e-02  5.9048853140334007e-02  4.4628158783818752e-03  4.5192229991703548e-03  4.9122174222809272e-03  6.7209508083725311e-03  2.2571023669585872e-02  6.3290172892773972e-02  3.8582133970744706e-03  3.9633704088008776e-03  3.7363635987493881e-03  6.5709324923029916e-02  6.5915538358190306e-02  6.7826170498645061e-02  6.8228438190991017e-02  6.7648920311950522e-02  1.4536424277441364e-02  6.8961366548042228e-03  2.9236655573588125e-02  6.6407740763042480e-03  1.9907813450679379e-02  2.3538938785706499e-02  3.1570714955695606e-02  7.1430501664589627e-03  6.7879275961771651e-02  6.6481863342224182e-02  6.6442447515130912e-02  6.6714107381139170e-02  6.5812329961486171e-02  4.1629264974080739e-03  6.5747312563806296e-02  6.5711755680429709e-02  4.0862260935541159e-03  6.5742728316917465e-02  3.6429871298753300e-03  3.6609312836439756e-03  4.4283132100202431e-03  3.6568565959103532e-03  5.3979083379761643e-03  7.0807796635800032e-03  6.6556725460214294e-02  6.7587552037992604e-02  6.7045311638617558e-02  6.6497439538615047e-02  6.6208258211418710e-03  1.4411366436605837e-02  1.6808365896497719e-02  6.7317664891154386e-02  3.5021559504975965e-02  6.5524431853374171e-02  6.7168507320465018e-02  6.6962630691336608e-02  6.6661118169557346e-02  6.6357396260306789e-02  1.0541724021895760e-02  6.9709445348826365e-02  8.4889968823776297e-03  6.6015788477251161e-02  6.3984288672852213e-03  4.4300453663520933e-03  5.1894564168406612e-02  4.7462922408796890e-02  4.3751140573387174e-03  6.4326416126312749e-02  5.3533890976423743e-03  4.4416196341992793e-02  5.2682255137876215e-03  6.5947749293301730e-02  4.6047822079927844e-03  4.1666498762138399e-03  6.6221288022111649e-02  3.7972954014784219e-02  6.3307889794252711e-02  6.7497459130739332e-02  6.8591397819915264e-03  4.7038970949133630e-03  4.1072755649866628e-02  2.9040028727131396e-02  4.3270496194518851e-02  4.7008825609892398e-02  3.8586614555032733e-02  6.5943751152743202e-02  6.1145556366763425e-03  7.1768547990409236e-03  5.1690129315833085e-03  6.7545940726541683e-03  2.0510958601271553e-02  6.4908068133071067e-02  6.6865590336999459e-02  1.4111540268227659e-02  1.4051788041625888e-02  2.4208538116653962e-02  1.4850410617191646e-02  4.8822191085994081e-02  5.1628908648351964e-02  6.3214344547750309e-03  5.5955220184588504e-02  6.0591844667089563e-02  4.9481911731764604e-02  4.6651865193541281e-02  6.6591931250309391e-02  9.3147537010176383e-03  5.8325141366981081e-02  5.6353942646229845e-02  6.4543856578949482e-02  4.5863329825288233e-03  6.6415127583266093e-02  1.6572953049133855e-02  6.8425465920044073e-02  5.8330032451106177e-02  5.6154914241509516e-03  5.4138951881857319e-03  5.2540147022468011e-03  6.4107728705300390e-02  2.1046947378421270e-02  6.6148195253930397e-02  6.5904099709045955e-02  1.3179533342601900e-02  1.0144880889879195e-02  7.0405373584236991e-03  2.3119125646034737e-02  5.6627100775574549e-02  3.9930697082233034e-02  6.7111361621853827e-02  1.9213925541970218e-02  6.6989364360662593e-02  6.7252200044203056e-02  6.6178774531504472e-03  6.5424601189015261e-02  4.8178587142135125e-03  4.8288181967655556e-03  1.5873432049956150e-02  1.3100036500309178e-02  6.6443113116200270e-02  3.8160516328723244e-03  3.8267276714253951e-03  6.6078622257741138e-02  6.6310986683777398e-02  6.6316922027791561e-02  4.1925455868352711e-03  4.2275616537901387e-03  4.0668656195101309e-03  3.1378401262294499e-02  5.0576376731105717e-02  1.1520586094060191e-02  3.9313940621095531e-03  6.5852193494046071e-02  6.6144382675682151e-02  1.4938070469207894e-02  4.8938802284827672e-03  9.2321232008348748e-03  6.0163376707697636e-03  5.9551351043502969e-03  6.6576750609150206e-02  2.6427731980038647e-02  6.2211186130932156e-02  6.6643505625114924e-02  4.5617638456812264e-03  3.8176742487689625e-03  3.7850423841148855e-03  2.6970803417264998e-02  2.7057608036446631e-02  6.6736652285654896e-02  6.6754713189749626e-02  6.2094540444929429e-03  9.6269124115494244e-03  2.5814240831209333e-02  4.6863798936823261e-03  6.6584121793359444e-02  6.6901267360982605e-02  6.6285612319119544e-02  4.1431811539702178e-03  6.4089151900066626e-03  4.1775554138031058e-03  6.5696899311401602e-02  6.7991617606812119e-02  3.7960607228694422e-03  6.8826487396225433e-02  6.7389443228346890e-02  1.7809715860919773e-02  3.1543268844478771e-02  4.4564030810627384e-03  6.5811347703284603e-02  6.7488758191230472e-02  6.7711795332972155e-02  4.8203208714711256e-03  4.9064603100510036e-03  5.3881818966297762e-02  5.0276117979353866e-03  5.3856221583672269e-03  4.7697449682700260e-02  4.7753954194372549e-03  6.3419215587147398e-03  5.8308854761667042e-02  2.1069937676326405e-02  6.5876485722427616e-02  6.0967733034387753e-02  6.8581836240103083e-02  5.6603802566534828e-02  6.7387577280214397e-02  5.0211131673256575e-03  6.7186876794935180e-02  6.7935692535467607e-02  4.0899213169970179e-03  3.8220768459077759e-03  6.5633495559815985e-02  6.5835555347264235e-02  3.4601976592614089e-02  1.3588996196511877e-02  6.8992961562368864e-03  5.6732310383087034e-03  5.0679591700021814e-02  5.2259878516723981e-03  5.4390947886410052e-02  6.6438397227620766e-02  6.6585795088577718e-02  3.4553180155959276e-02  6.7467211470815025e-02  2.0088929595592067e-02  3.7620426756624262e-02  4.8867481154213611e-02  4.0790781681608074e-02  1.8752072408428164e-02  6.5116594480130116e-02  6.2278663938909795e-02  2.4021160868924970e-02  4.1917272984088157e-02  3.3243817249501324e-02  4.4986246201637404e-03  6.4890579399317458e-02  6.5455163360647259e-02  6.2094871981240855e-02  6.6221673515231255e-02  6.6285117802138277e-02  3.9877644218970672e-03  6.6133111272501210e-02  5.8004092906740598e-03  8.5431432110445790e-03  6.6175096850600121e-02  6.8489871478813941e-02  4.4532858070491912e-02  2.5891638769912427e-02  3.4844667789534878e-02  5.0330306499845080e-03  9.3799165164317570e-03  5.9928954660007104e-02  7.0170619906586712e-02  6.8220750120144044e-02  5.1813221398915570e-03  4.4165338254026545e-03  5.1278027445011282e-02  5.1113901888547066e-03  6.4222392971117731e-02  6.7275691482401076e-02  6.1899947763969183e-02  3.8391580759912624e-03  7.4852910569408806e-03  9.1351479128873418e-03  1.4119197476504558e-02  4.1188630848986336e-03  6.7069819515503712e-02  6.7326472068620746e-02  1.3349334310346381e-02  6.0053068858529624e-02  6.7058413286485985e-02  6.5724797066647411e-02  4.6106927852198470e-02  6.1125963899624110e-02  3.2901315636507680e-02  6.2915980395706894e-02  6.7544960928936290e-02  6.7864711375401010e-02  6.6814742247820746e-02  2.9911200158152761e-02  4.5410328909347049e-02  4.0980810539667234e-02  6.6425810226421857e-03  5.5592911494498971e-02  6.5847107970703672e-02  6.6052501443337935e-02  4.3802528938386787e-03  5.7048270354701442e-03  6.6561967058336793e-02  5.4295907729213760e-03  6.1558248031815137e-02  6.6057829502646787e-03  3.9788592053660700e-03  6.7026959135639788e-02  3.2312148113406491e-02  4.7295097789216319e-03  4.1989341895040250e-02  5.5760097585558839e-02  4.0132548095670850e-02  6.0259757227027703e-03  6.3082149174100372e-03  4.0700186712750459e-03  6.2134842471954985e-02  6.8061612848665548e-02  6.4781949832996094e-02  1.7806741229716885e-02  4.0407640207316391e-03  6.5740305241231409e-02  1.4763774833623585e-02  6.6017565736153597e-02  5.3951053614953233e-02  6.8586613947670613e-02  5.4676093450619752e-02  5.2374663547532802e-03  6.7777555082197558e-02  4.2906434844959488e-03  4.3457062669770711e-03  6.7620345449160790e-02  6.6092659425808442e-02  6.7960872362117966e-02  5.1800850351802138e-03  6.9122916479051125e-02  4.5288869243506657e-03  9.0936897268529739e-03  1.1714458439111609e-02  5.9001056814946351e-03  5.5908184336584399e-03  5.5644907112945823e-03  6.1177125755121083e-02  6.3858472276705908e-02  5.5405286246611445e-02  7.8602132606310823e-03  6.5705020389994817e-02  5.1510035897992502e-02  4.2321155759883447e-02  6.6070520202686708e-02  6.7545818900330346e-02  6.4265865629829666e-02  1.6624146451963192e-02  6.0290566582785199e-03  6.5467090491777596e-02  6.6327949295919397e-02  6.7212016747204950e-02  5.3687147332187549e-03  1.3422822501234725e-02  8.1493072240490794e-03  3.6326211041789284e-03  5.7262729629927308e-03  7.0720509959999898e-03  5.3524066998253329e-02  6.6714318834275171e-02  3.3431224339888162e-02  4.4527970400550058e-03  1.0165708222650262e-02  3.1728415689555520e-02  7.1608437019574627e-03  3.6416375851508679e-03  3.7570976768113032e-03  6.5853767752441048e-02  6.2529830063110213e-03  6.6849874720905977e-02  6.6925000696532649e-02  5.3635918759029318e-03  5.3472574288040593e-02  6.4643398977787606e-03  6.4918755024912234e-02  9.0256876459093513e-03  6.7907433823131053e-02  5.6071212180852821e-03  6.6895396888674533e-02  6.6593402359481357e-02  6.5816209557756009e-02  6.5846240527445102e-02  5.9688292956259492e-03  6.6853568379497685e-03  2.8843791862272022e-02  3.9260505426870441e-03  6.6217343156013256e-02  6.6732577171437796e-02  7.3801067767029181e-03  5.8571517574692736e-03  2.1696794539829721e-02  6.6499003987974120e-02  1.8052604633940345e-02  4.2473261278226605e-03  5.7660727986734101e-03  3.6439756597179463e-03  4.3680437810058046e-03  4.3374974415889764e-03  4.6659610016456460e-03  9.8684217664866004e-03  1.4530145454467751e-02  7.8598904319182594e-03  3.7515240900940529e-03  6.6150212595368588e-02  4.2359148780572765e-03  6.8082392192656729e-02  6.8059997036120035e-02  7.2143513349297644e-03  6.1547737981244528e-02  6.2642935716347783e-02  1.2768853292191249e-02  2.1340916683226928e-02  2.8919322830599316e-02  1.0373133806480096e-02  1.1089463902387405e-02  3.9409947832207371e-03  6.6222875268185960e-02  6.6665341202729905e-02  7.3517435589210128e-03  2.2612044250570031e-02  6.6037498995724184e-02  4.0603613336789926e-03  4.0521597928676212e-02  5.8487727051249536e-02  3.9997354264089451e-02  6.5608995592568289e-02  3.8158896669395945e-03  2.4770376889536320e-02  6.8418783008753731e-02  3.7428509958288454e-03  6.5967939525154076e-02  5.2422198638629432e-03  4.9811751304891429e-03  6.4048866801394447e-02  2.8852511044481437e-02  4.2050924611134528e-02  5.8112136729457968e-02  1.7299232481572752e-02  6.8738338707653973e-02  6.7357187750769695e-02  5.9855488289423900e-02  4.4475843913742838e-03  3.7244367048078642e-03  6.6848140782655496e-02  4.9042228282505262e-02  7.3896753304501985e-03  5.5236873927667863e-03  1.1625369271517669e-02  4.1323920753626932e-02  6.8320150385475550e-02  6.7297657410604769e-02  4.4634669659312606e-02  6.7772993947249102e-02  2.0815559979347385e-02  6.5251911777664557e-03  5.5759923657378091e-03  4.8761614796157746e-03  2.2739198095536949e-02  6.7647148553839950e-02  1.0579853626587987e-02  6.8313159307442813e-03  7.3013533662239748e-03  2.5793561414076918e-02  1.2841703599672826e-02  3.7676305651581344e-03  3.6405890739720638e-03  4.9569742507923953e-02  6.2458897892205288e-02  1.7117533328306837e-02  6.7520456912273430e-02  4.5227390180494688e-02  3.6856517504608124e-02  4.1167361553367168e-03  6.1295354131999337e-03  2.0457110310508928e-02  4.0176486839682861e-03  2.3606235525841828e-02  6.3298317399597473e-02  4.3864551852739721e-02  1.7695268196608830e-02  2.2998552282403675e-02  6.4968378036670748e-03  6.5683160569008664e-02  6.5904380201080137e-02  6.7566311802118176e-03  7.6965037915067581e-03  2.9533254058071039e-02  5.5425198361740528e-03  3.2787506659884412e-02  2.4463870940141595e-02  6.6335183614514986e-02  3.7333220250742837e-03  3.3873849202508965e-02  4.3047922710180340e-02  5.9885285172856422e-03  1.2897963744646473e-02  6.6600994994935103e-02  6.2325914276958891e-03  5.8364155201830997e-02  7.8969435923818432e-03  4.1239981495673119e-03  4.3738479385338445e-03  6.1944731187413117e-03  4.5097869349347355e-03  6.3464500737305043e-02  6.7107675694858940e-02  6.6300757575666294e-02  6.6483928892633784e-02  6.6529703905250218e-02  4.1753434882880615e-02  4.8955908236334887e-03  3.4232586171142471e-02  5.5811888937968020e-02  5.9303810161508694e-02  1.1335891460812087e-02  4.4254935218923539e-03  3.9248527167393826e-03  6.6341479137133702e-02  6.7828911338477682e-02  6.5447538756404355e-02  5.3725444695170693e-03  5.8312910312310617e-03  4.5550237517385329e-02  6.5750423384381168e-02  5.2684010313376349e-02  6.5801396438414567e-02  6.5716703897070808e-02  6.5604930937129283e-02  6.7185948236255247e-02  6.5752301289876677e-02  5.6809666767346492e-03  4.7730576532465149e-03  5.0352498292919158e-03  3.6972991618653703e-03  3.8831521193412842e-03  4.4357062670412964e-03  6.8178874027779710e-02  6.7942387728287354e-02  6.7718464571737899e-02  6.5726598917179538e-02  6.8723823777037632e-02  6.3853061353362798e-03  4.5505420362484958e-03  6.6634446410217277e-02  6.5702951156251840e-02  7.0079934914199201e-03  6.6050632863751360e-02  3.7117991000373911e-03  6.9586294711667948e-03  5.2865030527983418e-03  3.3159833848955308e-02  5.6381471204927661e-02  6.2003101289533236e-02  2.4143137811249212e-02  3.1697396490379337e-02  3.7177748751305563e-02  6.7440025226919276e-02  6.5211122009005723e-02  6.8795842447172989e-02  7.8348837802921130e-03  1.7213774608553056e-02  3.6735491137337103e-03  4.6346277682559524e-03  6.5802091403475899e-02  6.5137174305693130e-02  6.5835947802144357e-02  5.5474256409059307e-03  6.5757480533811266e-02  3.3826779296053953e-02  5.5601000972216638e-02  4.5578641653463405e-02  1.2310999379456330e-02  7.2090397781621272e-03  4.9078479265158598e-02  6.9415423579434379e-02  6.6524057743200360e-02  6.4813233604402512e-02  7.4358651604148722e-03  6.6379043156759396e-02  6.7467033377562741e-02  6.7328698179156751e-02  6.7218843909576192e-02  6.7693761938915006e-02  6.9216452923544544e-02  6.9450001227419608e-02  4.1668360839497379e-03  5.4081113028656223e-02  6.6430476538843083e-02  4.8629534126429534e-03  5.4527730252363342e-02  4.4310804877016625e-03  6.7364731085394675e-02  6.6263399567252662e-02  4.6327283176981912e-02  6.8349189987575623e-02  4.2466226782485780e-02  6.6536831668699600e-02  5.4387709610108541e-03  6.1571867415288833e-02  5.5888658085809201e-02  4.5581893658725109e-03  3.9710354224183515e-03  6.5225524027848439e-02  4.1947027718810728e-03  4.0602168164258351e-03  6.6112231118865383e-02  7.9652424332156847e-03  1.9964358680108221e-02  1.3133899992640516e-02  2.3003720825183482e-02  8.8615868686071561e-03  6.7104170284818299e-02  6.7004790419211716e-02  6.1300827957800494e-02  9.8740050225513062e-03  7.7896405628538404e-03  8.6458178610717296e-03  6.6802683583390195e-03  6.6312796545564032e-02  6.7588637229633888e-02  6.5650445550983816e-02  6.6942695810329841e-02  8.5495184543424845e-03  6.6793521531050823e-02  6.6725820490144000e-02  6.5185359472992907e-02  1.0559240806107930e-02  4.7649165008445821e-03  4.6547660433013541e-03  6.6440990497233635e-02  6.5938754098749719e-02  6.7277230808583402e-02  6.7215857427679618e-02  6.7045903091571907e-02  2.6507865642341668e-02  4.1653871936474882e-03  6.6044816487038735e-02  6.5912896265538382e-02  6.6190159387775796e-02  6.6252102278149663e-02  6.6119348688449181e-02  6.3345186268316311e-02  2.7971883804314979e-02  5.3575620684733422e-03  7.6013456771945450e-03  3.7556708974087094e-03  5.6497326636053826e-03  6.5593694376219591e-02  6.7146000861338345e-02  6.7877176908528167e-02  2.0013758139903651e-02  4.4515393920618318e-03  3.2514356067163928e-02  5.5596461855026763e-03  6.0840751898892910e-02  6.6055623328343471e-02  4.5995424896992107e-03  3.9152697082469781e-02  4.8972273099130596e-02  1.4285448732183738e-02  4.2382314722316386e-03  6.5791667642225118e-02  6.7504849681198034e-02  5.2148790770461868e-02  2.7030275910340563e-02  6.7737293510690369e-02  5.5172698664310939e-02  4.9959223058351335e-02  6.6843514501451193e-02  3.9186353004807689e-03  6.0671117293631671e-03  6.1760776191358918e-02  6.7464745772118390e-02  6.7603268903799835e-02  6.6069183149642691e-02  6.5830757031085416e-02  4.4843387400726872e-03  6.5776971024235992e-02  4.4831281826567555e-03  4.0078403671609582e-03  4.6999389862180337e-02  6.6355972010809935e-02  5.1560086568972477e-03  3.8187228478924716e-02  4.3083901244107747e-03  6.0577127581192138e-02  6.6043864980264960e-02  6.6173960002588308e-02  6.6290818084805705e-02  6.6010571836738710e-02  1.45204418868