<?xml version="1.0"?>
<VTKFile type="UnstructuredGrid"  version="0.1"  >
<UnstructuredGrid>
<Piece  NumberOfPoints="6486" NumberOfCells="12696">
<Points>
<DataArray  type="Float64"  NumberOfComponents="3"  format="ascii">0 5 0  0 0 0  5 0 0  5 5 0  2.5 0 0  5 2.5 0  2.5 5 0  0 2.5 0  2.5 2.5 0  0 1.25 0  1.25 0 0  1.25 5 0  0 3.75 0  5 1.25 0  3.75 0 0  5 3.75 0  3.75 5 0  3.541666666666667 1.458333333333333 0  1.458333333333333 3.541666666666667 0  1.875 1.25 0  3.75 3.125 0  1.284722222222222 2.326388888888889 0  2.683189655172414 3.767959770114943 0  0.9375 0.9375 0  4.0625 4.0625 0  0.7252209595959597 3.026357323232324 0  2.763480392156863 0.9129901960784315 0  1.875 4.345238095238095 0  4.345238095238095 1.875 0  4.192708333333333 0.8072916666666664 0  0.8072916666666665 4.192708333333334 0  3.368055555555555 2.326388888888889 0  0.6837606837606839 1.738782051282051 0  3.285485245626782 4.324328415208927 0  2.551239698778062 1.693130150610969 0  1.827256944444444 2.868923611111111 0  3.464875022477093 0.6813924607921316 0  1.942880513719175 2.059558626187995 0  3.04563492063492 2.971230158730159 0  4.375 3.4375 0  2.13639445139758 0.5994472256987903 0  4.272228422619047 2.606956845238095 0  0.625 0 0  0 0.625 0  5 4.375 0  4.375 5 0  0.6400043240752655 2.384646170113389 0  1.347691225855598 1.660875475110776 0  3.515783617857982 3.723905460714006 0  3.125 0 0  1.875 0 0  0.625 5 0  4.375 0 0  5 1.875 0  0 1.875 0  0 3.125 0  1.875 5 0  5 0.625 0  0 4.375 0  3.125 5 0  5 3.125 0  1.489644181965304 0.6007147273217681 0  2.054597701149425 3.742302955665024 0  2.662520990197781 4.39452575763237 0  2.415835363784578 3.165530021913244 0  0.8679986894865213 3.602373689486522 0  1.267459753787878 2.886186079545454 0  4.099702380952381 1.365327380952381 0  1.316964285714286 4.438244047619047 0  3.7915135293491 1.959691594758709 0  2.875141124191255 2.118761176511833 0  3.00418010501169 1.397414179299248 0  0.4081721322167092 3.410647930198662 0  0.4166666666666666 0.9375 0  1.014190407998288 0.4422301359994293 0  1.383260571305984 1.162718286082048 0  4.53125 3.90625 0  4.453125 4.453125 0  3.772848162504192 4.48678272083473 0  2.8125 0.404329517041716 0  0.4538690476190476 0.4538690476190476 0  2.305461739347387 1.04517007574828 0  3.771263799175824 2.624190260297553 0  3.229617768018734 1.809956994202883 0  3.780190884441317 1.025307111692601 0  4.646337365591398 0.9375 0  4.537623451379149 0.4609485750426037 0  1.200477888421151 3.934852888421152 0  0.3536626344086022 4.0625 0  0.4623765486208503 4.539051424957397 0  4.0625 0.353662634408602 0  4.560525106689535 1.390989100915847 0  3.958439078571988 3.619844539285994 0  4.672619047619047 2.1875 0  2.1875 4.672619047619047 0  1.862808494877602 3.325947624431087 0  0.3268135998175443 2.8125 0  4.674181280189791 2.8125 0  2.283233994935276 4.138623547175983 0  0.9375 4.677879119362977 0  3.08488061581743 3.469889594488945 0  3.113427375573758 3.913955730709506 0  1.652847799068813 3.950848935641292 0  2.932652662909449 2.550542739521724 0  3.311350648514189 1.088831994878698 0  0.6770833333333333 1.295851139601139 0  0 1.5625 0  1.047214787840024 1.96818092308125 0  4.183331482095785 3.03958703580843 0  3.4375 5 0  1.071307777252521 3.246275861010018 0  0 2.1875 0  0.386576856303419 2.03125 0  1.713862716483534 2.439783116849799 0  1.775396256975935 1.665976816304977 0  2.231236976948428 1.443917394671254 0  2.373900732409897 2.086930260150635 0  4.114918237574474 2.221646174618671 0  3.661302567757379 4.099620139144836 0  3.378215938602977 2.734494874063393 0  0.9842097536079312 2.597286741306247 0  1.642795138888889 4.672619047619047 0  4.0625 5 0  2.099458800960004 2.567446522665629 0  2.616202751603346 1.297895893940078 0  5 4.6875 0  0.9937554350075428 1.512592975947215 0  2.8125 5 0  3.002695327068194 4.614055254615477 0  3.205627424097207 0.3852436382721472 0  1.678616581261621 0.927556612265266 0  3.365326698305438 3.196943731162083 0  1.554834936170314 3.120009882655813 0  3.108408340729323 0.7797187795784133 0  3.684368918102174 0.3728877601163941 0  2.716214835303553 3.39276351922003 0  2.37718583984784 3.551973401560441 0  0.3750662445374837 1.52191994866787 0  2.679073487930202 2.844160731602957 0  1.557635869750078 1.991068682985722 0  1.812595698561088 0.3839273018252746 0  2.512014721281916 0.6320641118792227 0  2.1875 0 0  2.349973454443689 0.3189980586887866 0  4.6875 3.59375 0  4.636052949022233 3.178355898044465 0  4.6875 5 0  3.345485909784306 4.665765449101383 0  0.536727472389443 3.749603193819277 0  4.349541499640203 1.116201826262156 0  2.886559045931982 1.774013674579691 0  0.6770833333333334 0.7142857142857143 0  1.5625 0 0  4.120842096538671 4.628726497527622 0  2.176157474177018 1.793470423744689 0  2.175650736889416 2.909863021769539 0  4.036616464259081 1.709699085170981 0  3.887974623473683 0.6492597046022868 0  3.4375 0 0  3.70675699592552 2.289666624772415 0  4.697265625 4.208984375 0  2.815177577303495 4.085937578239174 0  4.672619047619047 1.730733296184288 0  4.6875 0 0  5 0.3125 0  0.3125 5 0  0 4.6875 0  0.3276089296588581 2.484526834811734 0  0.712433309515852 2.065138854645612 0  0.6376435912223634 2.711473454001295 0  1.184991292170422 0.7222504400947201 0  1.31884329779317 0.3206944232264773 0  3.683609198994263 3.44428698533042 0  0.3125 0 0  0 0.3125 0  4.231797269642997 3.789141808928991 0  1.564375596050781 1.425998687184973 0  2.007640894175573 0.9032106925568466 0  0.955125897558294 2.276666098587227 0  1.43898735721003 2.611310720271951 0  1.954491523717513 4.040700257877075 0  1.752947649777421 3.652439445419346 0  2.509575750247638 4.678021307664052 0  4.687194709705067 2.499965519538002 0  1.5625 5 0  0.9375 5 0  5 2.8125 0  2.1875 5 0  5 1.5625 0  5 2.1875 0  4.0625 0 0  5 0.9375 0  2.8125 0 0  0.9375 0 0  0 0.9375 0  0 2.8125 0  0 3.4375 0  0 4.0625 0  5 3.4375 0  5 4.0625 0  4.010848109290813 3.306446973933037 0  0.3077461147713075 3.119700563473354 0  4.6796875 4.6796875 0  2.333079012424948 3.845757959077508 0  0.7829771267899832 3.317744656243421 0  1.159100632608513 3.532487125138763 0  0.799066251840424 3.893573750162776 0  1.57326499580282 4.255438189102632 0  0.7309366047093668 0.2991402264438908 0  0.3054777494262156 1.223275888123843 0  4.027475154280377 2.78211326942427 0  2.35270874745988 4.426658168476266 0  3.474236283732569 2.021154281686229 0  4.401414236174444 2.329446628171927 0  3.39403781747337 3.987097102903034 0  1.077524329801934 1.214100792470484 0  4.065611571711903 1.066085524514197 0  2.165399002716117 3.335637450367864 0  3.007639563081306 1.093684039371638 0  4.030818285732145 4.351883315180857 0  3.504115222530889 1.739284194222036 0  1.224503368215566 4.712091441401919 0  3.805634204685714 1.321528442399996 0  4.319233123479386 1.573547993867769 0  1.024007670021325 4.394604704797005 0  3.776400432023095 3.839003324979723 0  2.991819819453308 4.320567175146181 0  0.9782797534072181 2.886406017887129 0  1.763835134082104 0.6602345487826022 0  3.765182288741625 1.631193038541544 0  2.267959593989681 2.345053543725764 0  4.412434895833333 4.168294270833333 0  4.4072265625 4.7255859375 0  2.791493971314009 3.11210833271929 0  3.408766223032414 3.469500900677365 0  1.915147569444444 4.725484476461039 0  2.070301968506271 0.2605666686358055 0  2.767932250651506 1.530295992695836 0  3.280065043173439 1.364863281105779 0  4.45101570110842 2.974157152713635 0  3.521928862999512 2.96990445010402 0  2.552921961347576 4.008414007169315 0  0.2682955376854191 3.657555015841003 0  3.084522868361304 2.310593316718068 0  2.669255823227708 1.939379494498064 0  2.615884629473921 2.238841231570381 0  1.405652091971449 0.8877813821442277 0  3.25151486618811 3.68536115104276 0  1.963741569810629 2.331207252264507 0  4.017297980292599 2.486269171379106 0  3.869168920841219 4.748188103831625 0  3.596868753579134 4.77342723825056 0  2.41262958240343 2.764128584995838 0  1.266750578673391 1.404747710001619 0  1.559243962241121 2.85146506328516 0  3.128799423834764 2.052081657715259 0  0.6770833333333333 0.9778025793650794 0  0.2083333333333333 0.78125 0  1.978224492765132 3.087074731032578 0  4.051448850909273 1.969392119104174 0  1.320577095006813 4.172234780971559 0  3.214261103850064 2.534397293281829 0  0.2635729089754111 1.779234736680035 0  3.510775680035133 4.460728640112889 0  2.603081405968802 0.2432579385496493 0  2.866341315154884 0.6662105505481998 0  3.000919221100777 0.2270278495648781 0  1.298858304121393 2.05917319923859 0  2.020292299736597 1.589794568392338 0  0.7401688396476035 4.470780315741533 0  0.6721783535561408 4.733125588707921 0  3.753712482075402 2.874301339727514 0  3.557348205914658 2.491958694539413 0  1.094565978195436 0.2011034254079851 0  0.9338148378011396 0.6833568465908735 0  2.945530578578538 3.701798332963805 0  3.111707186654356 3.216904195825605 0  1.341791111822685 3.293123262233967 0  1.632939924064587 1.184895891095613 0  0.6335477978936732 3.517393619499591 0  0.5576014611130192 3.210998966942492 0  1.564344196470102 0.3630498725895039 0  2.75362450242839 4.626680495816594 0  3.571304405229554 1.192452351107437 0  3.522934592621944 0.9359134489437148 0  4.453125 3.671875 0  4.765625 3.828125 0  1.055906321410838 4.14310472322957 0  4.795146539102229 0.46875 0  4.767156345199235 0.7178596932040019 0  0.2048534608977711 4.53125 0  0.232843654800765 4.282140306795998 0  0.5393715189906129 4.270810883024032 0  4.329922600274667 0.2750645887059072 0  4.275515096738972 0.5448389557295173 0  4.477747423652795 0.7252838358993123 0  0.2002829820452772 0.46875 0  0.4352678571428572 0.6956845238095237 0  0.5007241582667088 0.2123388122114133 0  4.672890923830735 0.2500902110494848 0  0.4308009280819452 4.783624996516437 0  2.104871305393774 4.438653689007242 0  0.2274454167838428 0.2274454167838428 0  3.446466574593436 0.4359605369011901 0  2.12354112127588 1.217588426759619 0  2.309175236825235 0.7888355970690434 0  2.556178570281936 1.054299163237582 0  0.578683248637
[...]
<PointData  Scalars="f_16-1"> 
<DataArray  type="Float64"  Name="f_16-1"  format="ascii">1.1263194979046001e-36  9.5423326572969272e+03  3.7072430234269355e-34  2.4540336269404113e-56  -7.1134834854525469e-14  -1.1590463298801574e-39  1.3154015137789097e-41  6.6453564147572701e-14  -1.9453666821261086e-20  -1.7286120119010496e-03  -7.1603442372853850e-06  1.6358623472814724e-40  1.4843235467054754e-25  -1.3622875438316413e-38  -8.1429699552819283e-24  -5.6149109892782999e-48  5.7461592451492378e-48  -1.5829234313049729e-26  3.7724052986502268e-25  -1.5590643829722446e-10  8.1979485836533243e-33  3.5659096534478704e-14  -1.6526097779564388e-31  4.3133072285908211e-05  6.7852251598889396e-44  1.4373059730084187e-19  2.6436033303113421e-19  1.5077633214596480e-33  9.2701767572191247e-36  2.8304753191547777e-31  4.8275934801538700e-32  4.9298781918783930e-24  3.7542961798417582e-08  6.7033162618550667e-40  -9.8353771299461169e-17  7.5810507656133205e-21  -2.1850698336569942e-25  1.2147225945950718e-13  2.0284587910959755e-27  -1.6624597129656695e-39  -2.1102636990238365e-13  -7.1680833923039434e-34  -9.3935108944198620e-01  -2.1661015115408845e+03  6.5342960649011055e-52  5.0781476136442948e-51  1.7588452635198419e-13  1.9985047997214899e-09  4.4997840530181366e-36  1.3274889936972911e-18  5.7388711877611967e-11  -8.6213084177651712e-41  -1.3035870576983255e-28  2.2295472355206427e-41  -2.2254728316082299e-09  5.5618215437783400e-20  2.8441625017381936e-40  -1.1427324859155273e-36  -6.4653246127609416e-31  2.5954256397835801e-44  -1.0041688672797850e-43  -7.3479528970305562e-09  -8.1898438475293627e-29  -2.1287933623277746e-36  -3.3007882443709474e-25  2.2883524669871830e-25  5.9040582398530887e-20  8.5635441427894917e-32  -2.9306168841624600e-34  -3.1756625626123282e-31  2.6259874017466567e-20  3.2144199881490953e-22  3.0530167266330283e-24  1.7386964853659406e+00  1.2925583188450268e-04  -1.1899466761101399e-05  -1.2208421608230951e-46  1.4807133656100272e-48  4.2500055910992866e-44  7.0103801878573359e-19  -1.8020146890473583e+01  6.1868031051131034e-15  -5.6339949455260696e-30  -1.0303183404876680e-22  7.5559588204640344e-29  -2.6013890650484600e-33  9.3220913896681888e-33  -1.1377299303109033e-29  2.5081865895001408e-30  9.2884050901848902e-34  1.1641676304113336e-28  -1.6201392020089235e-37  -5.4917081629982620e-38  -1.1884247625319455e-37  -2.5367161888239822e-38  2.8061406841399479e-28  -1.3930655418547066e-17  -1.2057586047651933e-38  6.7987349199925698e-33  6.8389389553973857e-38  -1.7430354335786618e-31  1.0473289810079117e-34  -1.1147155129373678e-28  3.9445490314107684e-24  9.5585341200055861e-24  -5.5464617226294424e-05  -5.4567073870420283e-07  -1.1133988580482631e-10  7.6244979493929921e-37  -3.1905415596059165e-47  2.5202232300728213e-22  -4.0316714340535814e-12  -2.9090304445627595e-10  2.1752310724579841e-16  7.5897019039327497e-11  -1.2807849111974636e-14  1.0803900610493609e-17  9.7879369517145319e-32  7.0044749984480171e-39  7.6975099885925914e-27  -4.2650775992606929e-17  1.0460315246017782e-38  -5.0113744022108735e-48  2.0937757786486623e-18  3.9205420084937273e-18  1.9090789737850906e-55  3.2577115036813575e-08  1.2586137162915692e-43  7.1060587404023013e-41  5.0459338826484259e-21  5.3734869430404143e-09  -9.3413112603459593e-31  3.8046904171375200e-22  3.6215552729831452e-22  -7.0729362822429331e-25  -2.6622236342136396e-28  -3.1556576827549781e-28  1.2798112589541930e-04  -9.5180401914646069e-25  -6.7364820884012880e-12  6.9212450809610199e-12  3.6206782702463432e-17  -8.0925496075190165e-13  5.0285207161792006e-14  8.2569583686967461e-45  -4.6783473762343763e-40  6.0819186337658055e-55  1.5468233283636066e-43  1.6729506289796092e-28  2.2130935257405340e-34  2.1512298881227139e-19  -6.8007291155752062e-02  -1.4842366033006405e-08  6.5587669309401326e-48  2.9440565030451224e-13  -6.1744533028400253e-21  -8.8571958931424447e-32  -2.0490942818523769e-26  1.2399465302964713e-21  -2.4139938398251349e-26  5.4754109675707342e-49  1.0150900371870149e-34  -2.2367803355958813e-39  -6.6699760034174736e-31  -8.3117354947750398e-35  1.9488473804307531e-37  6.5433216260907938e-34  -1.5789599210211162e-14  1.5758229688210975e-11  4.8120869556183721e-16  -3.5166939123159290e-06  -4.5216562699391261e-07  -2.5099815871330181e-34  5.8741414692978992e+02  1.6455298671443894e+05  1.4196894801960367e-41  1.7988945319028007e-08  -1.1375265077309316e-13  1.4038630039673894e-14  -5.5516655557790023e-17  2.1044443868934426e-31  -1.9142335325597293e-26  -1.3778475135272292e-39  2.5824496846874491e-37  4.2571473079872151e-39  4.2462790657261076e-40  2.3525864067066294e-41  -3.4667230941706469e-41  -6.8865187839697353e-42  -6.5145084693594904e-41  -3.7604667207747444e-26  -2.9409035087752442e-36  5.4089061833940203e-16  -1.4787012684313934e-02  8.5158531121718362e+00  3.5429948723312318e-17  2.0477064139552163e-21  1.0602064781331843e-27  -2.8292865048397605e-45  4.3691521464952332e-50  -8.2791087489924121e-36  -9.2145498207119642e-21  3.1942901254992565e-52  -1.0271628101656833e-29  -1.0584693527853931e-22  -2.5679968240107715e-26  1.0755751280515736e-28  8.9096964593013463e-33  -3.4516346276319770e-01  2.1592076069325051e-02  -3.5650794252955926e-33  3.4140413893967904e-36  6.0801619304780576e-25  -1.0875168446912809e-33  -2.4673367286244812e-36  -9.6205246924341483e-06  -8.6731184911351735e-31  1.2609426601911110e-24  8.2736623841119040e-22  1.5414872239261806e-44  -1.0705528151282920e-25  -3.7235654069892152e-37  -2.1653187901299858e-29  -6.0121848127937278e-34  6.6863117331513763e-34  2.7873570589272607e-38  -5.1206519439785007e-38  1.0849050674702817e-19  -1.5129646878201450e-10  -6.4431323576778900e-29  -2.2934526516143623e-18  2.8994299507037440e-46  -3.3836007426937470e-50  1.7866649476517527e-27  -2.6027453430094598e-33  7.5229614807719364e-38  -5.3865708680261071e-12  2.7603694278376759e-18  -1.3251791207393112e-23  5.8211902877903487e-38  -6.4050448017437154e-30  -3.5950162521401812e-33  1.4726925643743143e-25  9.0044426137422591e-23  1.2784360318230841e-17  1.3562189253667563e-19  2.3563472302875715e-07  5.0576046487613512e-33  1.2864645979791460e-15  5.3025706419861295e-31  -4.9444571230432445e-46  3.3055442609121980e-45  -1.2839032090945827e-21  5.7325149969798015e-06  -2.0386543627223772e-20  6.4254714434796411e-22  -7.5856675323902664e-03  9.0129096008292215e+00  -4.6360461405686116e-22  8.2393904265224867e-32  -2.9769186234034239e-32  -1.3616897823340202e-25  -4.9414056941105405e-08  4.6954550119500688e-43  -4.1777160844851589e-16  -1.7114623514946430e-20  -3.1175620146635657e-20  2.5363337190340823e-12  6.8977441166878971e-12  7.6207411203651423e-34  -7.6772947154641336e-37  1.0362946482217948e-30  -1.1003610716282331e-26  -3.5594238906279369e-04  -2.7745293396012749e-05  -1.2384878328556609e-31  -2.6879761439810613e-29  -3.6977182429921057e-23  -8.3860073290597666e-08  5.5231700304609203e-25  1.2080313426402765e-21  1.2894127615556662e-08  2.1361614400481842e-38  2.6572811957020444e-26  2.6752511062225761e-26  -5.4162197394063045e-43  -2.4259430279150750e-47  -6.9450369684328058e-33  -4.9386463654205524e-34  2.3406592227644548e-35  3.1555002179523462e-33  6.8536785089580875e-31  2.0211056152393232e-32  3.9314896645843040e-29  7.3357029821571573e-30  2.2488472552452495e-31  2.3641620872993579e+04  -6.8209587606511484e+00  -2.4871658394552350e+02  5.6044158126256654e-32  -1.7287100008369135e-36  -5.4070393252223668e-37  5.0693762828807754e+04  -7.3827419155454429e-24  -9.3586953390373645e-14  4.6438458878124436e-15  2.4902117894558740e-18  -2.0051907958722884e-30  -2.2435873027098106e-28  -1.2290922219701186e-15  -1.8065306340781675e-27  -7.3097716850720255e-26  -3.3022199535471827e-37  -8.8830040316025525e-41  9.9232607601668209e-51  -1.9715368677262470e-06  6.9062680576050575e-28  9.0280525063325961e-28  8.7418919982637818e-22  -4.3368498152063640e-39  3.3852505504499045e-26  -1.0760402056775348e-27  -4.0323691427013000e-10  -1.4294890094836070e-24  -1.0280578597830540e-26  2.8638286830024618e-34  7.8815578278684563e-10  -3.5984676322627444e-37  5.6438350972655480e-35  -2.8017463733480218e-13  -8.0751678868895684e-39  3.9160330089377704e-05  -4.0946205871353961e-17  6.1829708677933131e-40  -3.2233469306577487e-40  7.6898244266262983e-29  -2.5425023624776515e-40  2.3044622777081425e-18  1.5929856958496347e-16  5.9373529970935529e-41  -2.6419854896529137e-36  1.0665946973094387e-13  1.8314786727518076e-21  -3.1893688363217731e-24  -1.7895650000760650e-41  4.2350177403336824e-23  2.5763623944563766e-42  2.2011206882309249e-37  1.3018484934907839e-21  1.4444031232878299e-38  9.7179790203625211e-18  -1.4724634055165038e-06  3.2647282500353154e-04  1.1013304619688842e-02  1.9193346237318632e-24  1.2247222589117298e-22  2.2944577618098849e-14  3.3746128408587730e-39  1.3821309301909914e-40  -9.0270774706444677e-41  -7.5717555347595336e-36  -5.1204040951812131e-55  -6.0758952974388584e-34  -8.8400649933907400e-35  -2.7736172675758733e-20  6.3229056866355377e-50  -3.8315042053740356e-21  1.3030808400180467e-38  -3.2064754038559663e-31  1.4219782249105771e-28  -7.7528664995438495e-24  -2.6312747705240689e-19  3.8157908920493310e-03  -1.2402693882369665e-45  -1.3986550822318334e-30  -6.3136037096030996e-16  2.8351413560136594e-15  1.2952140257869519e-41  3.2221694622060935e-11  1.9416566241292259e-10  -9.8563483427366165e-09  -2.7956907093190153e-12  -2.7861625034701910e-30  1.3479055083003058e-18  1.0584564910830011e-27  -5.1297363797643233e-24  1.2824439168963689e-30  7.9457807053802092e-34  -6.2058857240562451e-38  1.7850382107733380e-22  1.5286577792819422e-16  1.7755371737688722e-06  -2.9957702430787537e-34  -2.0811591877513335e-08  -7.3755171306181639e-13  3.3753042196540607e-44  2.6072539089526187e-25  -5.5455330132415212e-23  -5.8566205291669165e-42  4.5629778915188103e-19  -5.9705030740812093e-01  -6.2887785700447505e-11  1.4460486068432526e-30  -2.7558813813569750e-34  4.6102402139507804e-25  -4.4505908011130632e-32  1.7816089662077790e-42  1.8705827202485274e-21  3.0122471494547533e-09  -2.3391510266248968e-32  -7.3843960235193761e-17  -1.4740433014995228e-16  8.0604691636625549e-15  2.3704020590339221e-32  -9.4337607288423077e-24  3.7348563801531874e-20  3.0732222104715640e-28  -2.8677909638791573e-06  2.1045856608678981e-13  2.7458365780577835e-40  2.0596336339787539e-19  6.8582491969962490e-33  1.9653135509628766e-37  -7.4445950848301369e-41  -7.2239278988959367e-19  2.7521299839040320e-15  8.8857297476633456e-28  1.0698373540882628e-32  6.8244523299095604e-38  -1.2745575612529706e-40  2.9835689022164642e-07  -3.9922945625616311e-22  -3.5717509441611633e-38  -1.0179073288551580e-35  -1.0905033775578031e-27  1.8770258534499146e-16  -4.4051402205781432e-30  -9.5433946237945875e-18  -1.9018883698947468e-36  1.2808090714638212e-07  -1.0578984916531548e-35  9.8256015678045056e-24  -5.8097561785526618e-15  9.7255209650912332e-27  2.3453142375313374e-53  -3.7241594265237877e-12  -2.2729265570831372e-31  3.6264567161025101e-20  -4.5951410930983866e-12  -1.6645337548865509e-31  -1.4338508629488856e-26  -4.9323706950025911e-12  4.9799290129575711e-39  6.0052038859315564e-48  -4.3866396281353949e-38  -1.8663624825953299e-40  -1.9899393408459972e-12  2.3532368579681289e-07  -5.1758669367690280e-21  3.4532027762855924e-07  1.7092444094661297e-30  2.1763288660791040e-21  -1.3756124693838373e-14  3.4917116782792453e-27  -4.6737948593420449e-27  1.2588786023031077e-17  -1.2186379418591110e-35  -5.8761558990897351e-10  -2.2062828480645102e-22  5.1145362168502533e-04  -1.5603226600551802e-26  1.0519267324757038e-09  -1.0817766378327627e-09  -5.5451035202375429e-15  9.7351622631865864e-21  1.4081876152235833e-18  3.2934793983407901e-29  -5.8814962464791077e-31  -4.7040308330860675e-27  4.3511621158986704e-03  -9.6723887829067084e-40  1.6338250393069372e-44  -6.5192590083427163e-48  -5.1537710866329697e-36  3.3805156550292807e-16  6.6740249473751825e-46  -6.2005610328732512e-07  -4.1754264911669225e-13  1.7479837888487370e-15  1.9351585152427023e-33  1.7297998298741217e-20  -4.3309579381702890e-20  1.9408421801410724e-38  -4.6201360653019241e-22  1.3713876593886044e-42  -1.3948796947689725e-38  -8.5196978649014864e-29  8.2218173247357000e-41  2.7629629226453282e-28  2.1221627031623193e-45  -1.2663398393246338e-30  2.3002926974217744e-22  1.0558873030246978e-18  2.9899528754789389e-02  -2.5647694946866213e-36  -5.1368608522280340e-35  9.3773776761341656e-39  5.1607248476387698e-11  1.9316889805481790e-26  7.2385741944775025e-26  2.4806470564593882e-26  -3.7871586670320475e-48  2.0302095293010015e-11  3.9007885310633073e-34  1.1698485124152037e-12  9.5974599196868115e-12  -1.1396033623844650e-29  3.5464037962844120e-23  2.8046668340292031e-30  -1.6313196704134813e-39  2.7502994298366900e-38  -8.4027164742863794e-13  1.5031394679083806e-10  3.9843769036451864e-21  2.1997020807095130e-37  -1.1722775801340737e-33  1.1898020100723938e-26  -9.1838841837596914e-25  5.2778774183144197e-27  -1.5773543478476115e-34  8.7706340263165204e-29  3.2555812263689160e-41  3.7132338058885863e-33  -7.9204942091375872e-16  -9.0407283528875827e-40  -5.1253922241617871e-34  8.3168463890840678e-32  5.8835404941299337e-30  1.0601010806841281e-47  1.9165987224995440e-45  -1.0421129652770579e-43  -5.1478073279542642e-34  -1.9834241422057267e-34  2.6531250043839016e-32  -5.5561085281247004e-12  3.9147385190976535e-13  5.0111064173486582e-24  1.2377346531386248e-41  2.9744402703793550e-45  1.3068480672744156e-25  -3.5191873317426080e-50  -1.1101962081506879e-48  1.1706737958519889e-18  3.5443327847518999e-20  -3.0009510502426601e-33  -8.0217040605272411e-32  -3.5492892019345161e-26  -6.9557910742928130e-11  2.0121576330641443e-36  1.2051541409869805e-36  -8.6228426195268100e-32  1.5703625209322017e-01  5.7566500688089807e-02  2.2443321761852889e-03  -2.0119476729698073e-28  8.4151894923326940e-33  2.7702023314289323e-31  -6.7743343002555856e-08  -4.1711436615230777e-39  -2.4303692569109683e-34  -2.1743784597428592e-19  -9.5412689608850372e-24  5.0929942458115292e-36  -1.7794549622363421e-53  1.9912441051688404e-28  -3.4326401135374294e-44  2.9510395402312514e-50  1.4207394221435673e-06  2.3781058914264319e-20  -5.2956753604463757e-28  -6.6832335554541823e-36  -2.5447656891365999e-41  -3.7471577428192097e-25  4.0377585397022705e-35  3.5483427060290369e-05  -5.2746468316564416e-23  6.8676812847590563e-49  -9.7241293099288953e-22  -6.6336090211222570e-10  2.3271045163600340e-18  -4.9280919658761887e-33  -9.8734558173095584e-16  -1.8362299260681107e-18  8.5712073766877000e-14  1.8062906835317781e-36  -4.9808739198134411e-28  -1.4547089011508580e+00  -5.4424593498959849e-17  -5.0487870350759718e-08  1.5515297978487425e-05  5.6412227444758722e-08  -5.3062219356028975e-05  -5.1051425654490485e-05  -6.0814143877873191e-39  8.0551742989194708e-41  2.2605615748400712e-23  -1.2200868264294830e-20  1.0050649388289210e-18  -1.9779759910256063e-17  9.2242040337738274e+01  7.6408699743490529e-35  2.6245675595503310e-36  6.9143371370466167e-13  -9.0858575040584154e-44  -2.1656691491049964e-34  -2.2600952152094265e-46  3.5822888883500020e-32  -1.8025713681695064e-45  1.2755810831736038e-13  -1.5659554557159360e-41  5.9863578955987040e-21  1.9714323279195096e-37  -4.2127363998776386e-38  7.3204286646474911e+03  6.8273347091697631e+06  5.2259482259196282e-42  8.1621999873751710e-15  -1.2714031216905937e-51  -4.5374194131730439e+02  6.4525158979864559e-30  8.3860112854985009e-35  -1.6528213465053009e-07  -9.0124332324511974e-08  3.6152678297507016e-25  -1.2767818292837271e-35  -3.9576121096054711e-24  1.9475875421035868e-12  -3.1964424824774195e-48  -6.4661105962167715e+00  1.2316218937389822e-29  -3.7376473845383102e-29  -9.7915645298914600e-13  -6.3764372417421518e-34  9.5481205902091574e-04  -5.2196985114260639e-23  -1.7578276111237789e-33  -2.7507666733650389e-30  -1.8206529501597007e-28  -1.1314700937697292e-43  6.6029603216339537e-22  1.6191975913677722e-28  -1.4087043267182251e-16  8.9352720788226340e-31  3.8570119979646896e-33  -2.9731022408653127e-37  -8.4533530972913903e-39  -1.3835096897904814e-31  -3.6542955141817543e-15  1.7357636501918023e-41  -1.0438206818288833e-41  -2.2981508947026800e-13  1.1888547366440903e-52  3.1720145287183615e-39  -8.6930785142680609e-50  -5.5912363130551974e-35  5.5463506959983906e-37  -1.2634970656578525e-41  -1.1939092525019453e-21  4.6406923978513275e-40  -4.8364169279583236e-44  9.0796160108135796e-22  -5.8139133128079488e-20  1.7646981469921155e-42  1.6218661649944167e-39  4.6240644326328333e-43  -1.4539044798046613e-11  7.0970058959872874e-12  -7.8784671405486700e-16  6.0607495990134091e-42  -1.0064463258341021e-05  -1.1954897692941608e-09  1.2856209129875297e-24  -5.6098562475954196e-26  -3.2942149497925706e-38  -2.3041185291291054e+01  7.2194911478471832e-33  1.0910570156429297e-35  3.4805468852444515e-05  -3.1847104933743538e-18  5.5032265508697034e+04  1.3509235437937789e+02  3.8303053826939592e-48  1.6348142699495533e-54  -1.0693631349242081e-56  -1.0953721598991224e-55  1.5444112460072648e-18  1.3897423819292702e-43  2.2162821044050021e-01  7.1883254250019417e-47  6.8624676284043911e-52  2.7782270151895909e-37  -5.4680522968304364e-29  -1.9269264330875784e-36  -1.0517787978937333e-23  3.9601780079223562e-38  5.9957695194681980e-21  -6.6991353279573180e-40  3.4793537598677418e-05  5.8294019820115146e-07  1.5874055125793444e-05  -1.9954182455989709e-42  -2.5809311629768267e-02  2.2102917566966750e-11  -1.4137574054447792e-03  -4.9001440795160492e-32  -1.3261986137394755e-16  -1.0865099889757588e-14  7.3204874078191972e-33  -1.8946951061565501e-21  2.5478486309960698e-20  -8.2071710975933736e-23  2.6496410448323641e-17  6.9449147334637174e-04  -2.2976776449094558e-02  -1.6006141081099110e-35  1.1696860679058690e-32  -6.2610799967345827e-30  -2.1965496140057569e-33  -3.4943275136262140e-08  -7.2351514787403418e-41  -1.2915567494498074e-20  3.7518148230066520e-32  -5.8579924425226104e-17  -9.6122021721547293e-10  1.6894592760118313e-25  -1.4732778718762120e-29  -5.0495122464237594e-21  -4.0248149219270822e-13  5.2632769100849447e-14  2.5191038947481882e-28  -2.0698810314588793e-37  2.9069385807405088e-09  4.2405733176472984e-35  4.5054217525454367e-35  2.3531773437957559e-21  2.0811047441263224e-23  4.7656432602334227e-09  2.2279606997643681e-28  -2.8813672659391734e-06  -2.7618341516559431e-41  1.3299010326019600e-23  1.1793019913295974e-24  1.8573718913582396e-38  -3.8176700021956225e-33  -1.5035120189248771e-31  2.2556648551661857e-34  2.3603559545035797e-32  1.3067174413953170e-32  -2.2297232676266232e-17  1.3953734125205461e-32  -1.5783943907540629e-25  -1.3115375069058582e-17  3.0213012367976890e-27  5.7941039289974203e-28  -1.9053046662682427e-40  -1.4269687296389881e-20  7.9788438161111104e-27  -6.9223054380739450e-29  7.1305190300222718e-32  4.2839452542606560e-33  9.2332519269094736e-23  1.0069984753148564e-22  4.0229809747798262e-24  -9.5677851695285240e-16  -5.8542873455776110e-31  3.5681079530201166e-37  8.9532049635834265e-39  2.1869675481581913e-34  6.5507994808255534e-34  4.1627828068311043e-35  -9.3011415678007397e-42  3.3842319543884103e-27  -3.4542009517818863e-20  8.9047098069357650e-39  -2.1553724275195469e-40  1.7150555848154284e-34  2.0488288491130509e-25  5.9917730685345590e-19  -6.2330730338909531e-14  3.6608870639822255e-26  3.9923534949607291e-27  3.1850475364775974e-09  -8.6493565275820732e-18  -1.0265984425999064e-43  3.8890295753762375e-08  1.3156177425722906e-25  -2.8462119577194918e-45  -9.5099155041059385e-44  1.0099520460135926e-48  -9.7659730054283107e-34  2.7165576015538326e-40  -1.0669787970833973e-18  1.2228243260280670e-27  1.2574408660670302e-23  -1.3530644256840979e-16  -5.1546344037208887e-36  -1.2789333619408919e-37  -2.2368102091804668e-26  8.2470012018127266e-33  -4.2739051528066693e-16  -1.1870931175331891e-24  3.6334805599220381e-19  1.7917574875194848e-17  8.873040904601