<?xml version="1.0"?>
<VTKFile type="UnstructuredGrid"  version="0.1"  >
<UnstructuredGrid>
<Piece  NumberOfPoints="6486" NumberOfCells="12696">
<Points>
<DataArray  type="Float64"  NumberOfComponents="3"  format="ascii">0 5 0  0 0 0  5 0 0  5 5 0  2.5 0 0  5 2.5 0  2.5 5 0  0 2.5 0  2.5 2.5 0  0 1.25 0  1.25 0 0  1.25 5 0  0 3.75 0  5 1.25 0  3.75 0 0  5 3.75 0  3.75 5 0  3.541666666666667 1.458333333333333 0  1.458333333333333 3.541666666666667 0  1.875 1.25 0  3.75 3.125 0  1.284722222222222 2.326388888888889 0  2.683189655172414 3.767959770114943 0  0.9375 0.9375 0  4.0625 4.0625 0  0.7252209595959597 3.026357323232324 0  2.763480392156863 0.9129901960784315 0  1.875 4.345238095238095 0  4.345238095238095 1.875 0  4.192708333333333 0.8072916666666664 0  0.8072916666666665 4.192708333333334 0  3.368055555555555 2.326388888888889 0  0.6837606837606839 1.738782051282051 0  3.285485245626782 4.324328415208927 0  2.551239698778062 1.693130150610969 0  1.827256944444444 2.868923611111111 0  3.464875022477093 0.6813924607921316 0  1.942880513719175 2.059558626187995 0  3.04563492063492 2.971230158730159 0  4.375 3.4375 0  2.13639445139758 0.5994472256987903 0  4.272228422619047 2.606956845238095 0  0.625 0 0  0 0.625 0  5 4.375 0  4.375 5 0  0.6400043240752655 2.384646170113389 0  1.347691225855598 1.660875475110776 0  3.515783617857982 3.723905460714006 0  3.125 0 0  1.875 0 0  0.625 5 0  4.375 0 0  5 1.875 0  0 1.875 0  0 3.125 0  1.875 5 0  5 0.625 0  0 4.375 0  3.125 5 0  5 3.125 0  1.489644181965304 0.6007147273217681 0  2.054597701149425 3.742302955665024 0  2.662520990197781 4.39452575763237 0  2.415835363784578 3.165530021913244 0  0.8679986894865213 3.602373689486522 0  1.267459753787878 2.886186079545454 0  4.099702380952381 1.365327380952381 0  1.316964285714286 4.438244047619047 0  3.7915135293491 1.959691594758709 0  2.875141124191255 2.118761176511833 0  3.00418010501169 1.397414179299248 0  0.4081721322167092 3.410647930198662 0  0.4166666666666666 0.9375 0  1.014190407998288 0.4422301359994293 0  1.383260571305984 1.162718286082048 0  4.53125 3.90625 0  4.453125 4.453125 0  3.772848162504192 4.48678272083473 0  2.8125 0.404329517041716 0  0.4538690476190476 0.4538690476190476 0  2.305461739347387 1.04517007574828 0  3.771263799175824 2.624190260297553 0  3.229617768018734 1.809956994202883 0  3.780190884441317 1.025307111692601 0  4.646337365591398 0.9375 0  4.537623451379149 0.4609485750426037 0  1.200477888421151 3.934852888421152 0  0.3536626344086022 4.0625 0  0.4623765486208503 4.539051424957397 0  4.0625 0.353662634408602 0  4.560525106689535 1.390989100915847 0  3.958439078571988 3.619844539285994 0  4.672619047619047 2.1875 0  2.1875 4.672619047619047 0  1.862808494877602 3.325947624431087 0  0.3268135998175443 2.8125 0  4.674181280189791 2.8125 0  2.283233994935276 4.138623547175983 0  0.9375 4.677879119362977 0  3.08488061581743 3.469889594488945 0  3.113427375573758 3.913955730709506 0  1.652847799068813 3.950848935641292 0  2.932652662909449 2.550542739521724 0  3.311350648514189 1.088831994878698 0  0.6770833333333333 1.295851139601139 0  0 1.5625 0  1.047214787840024 1.96818092308125 0  4.183331482095785 3.03958703580843 0  3.4375 5 0  1.071307777252521 3.246275861010018 0  0 2.1875 0  0.386576856303419 2.03125 0  1.713862716483534 2.439783116849799 0  1.775396256975935 1.665976816304977 0  2.231236976948428 1.443917394671254 0  2.373900732409897 2.086930260150635 0  4.114918237574474 2.221646174618671 0  3.661302567757379 4.099620139144836 0  3.378215938602977 2.734494874063393 0  0.9842097536079312 2.597286741306247 0  1.642795138888889 4.672619047619047 0  4.0625 5 0  2.099458800960004 2.567446522665629 0  2.616202751603346 1.297895893940078 0  5 4.6875 0  0.9937554350075428 1.512592975947215 0  2.8125 5 0  3.002695327068194 4.614055254615477 0  3.205627424097207 0.3852436382721472 0  1.678616581261621 0.927556612265266 0  3.365326698305438 3.196943731162083 0  1.554834936170314 3.120009882655813 0  3.108408340729323 0.7797187795784133 0  3.684368918102174 0.3728877601163941 0  2.716214835303553 3.39276351922003 0  2.37718583984784 3.551973401560441 0  0.3750662445374837 1.52191994866787 0  2.679073487930202 2.844160731602957 0  1.557635869750078 1.991068682985722 0  1.812595698561088 0.3839273018252746 0  2.512014721281916 0.6320641118792227 0  2.1875 0 0  2.349973454443689 0.3189980586887866 0  4.6875 3.59375 0  4.636052949022233 3.178355898044465 0  4.6875 5 0  3.345485909784306 4.665765449101383 0  0.536727472389443 3.749603193819277 0  4.349541499640203 1.116201826262156 0  2.886559045931982 1.774013674579691 0  0.6770833333333334 0.7142857142857143 0  1.5625 0 0  4.120842096538671 4.628726497527622 0  2.176157474177018 1.793470423744689 0  2.175650736889416 2.909863021769539 0  4.036616464259081 1.709699085170981 0  3.887974623473683 0.6492597046022868 0  3.4375 0 0  3.70675699592552 2.289666624772415 0  4.697265625 4.208984375 0  2.815177577303495 4.085937578239174 0  4.672619047619047 1.730733296184288 0  4.6875 0 0  5 0.3125 0  0.3125 5 0  0 4.6875 0  0.3276089296588581 2.484526834811734 0  0.712433309515852 2.065138854645612 0  0.6376435912223634 2.711473454001295 0  1.184991292170422 0.7222504400947201 0  1.31884329779317 0.3206944232264773 0  3.683609198994263 3.44428698533042 0  0.3125 0 0  0 0.3125 0  4.231797269642997 3.789141808928991 0  1.564375596050781 1.425998687184973 0  2.007640894175573 0.9032106925568466 0  0.955125897558294 2.276666098587227 0  1.43898735721003 2.611310720271951 0  1.954491523717513 4.040700257877075 0  1.752947649777421 3.652439445419346 0  2.509575750247638 4.678021307664052 0  4.687194709705067 2.499965519538002 0  1.5625 5 0  0.9375 5 0  5 2.8125 0  2.1875 5 0  5 1.5625 0  5 2.1875 0  4.0625 0 0  5 0.9375 0  2.8125 0 0  0.9375 0 0  0 0.9375 0  0 2.8125 0  0 3.4375 0  0 4.0625 0  5 3.4375 0  5 4.0625 0  4.010848109290813 3.306446973933037 0  0.3077461147713075 3.119700563473354 0  4.6796875 4.6796875 0  2.333079012424948 3.845757959077508 0  0.7829771267899832 3.317744656243421 0  1.159100632608513 3.532487125138763 0  0.799066251840424 3.893573750162776 0  1.57326499580282 4.255438189102632 0  0.7309366047093668 0.2991402264438908 0  0.3054777494262156 1.223275888123843 0  4.027475154280377 2.78211326942427 0  2.35270874745988 4.426658168476266 0  3.474236283732569 2.021154281686229 0  4.401414236174444 2.329446628171927 0  3.39403781747337 3.987097102903034 0  1.077524329801934 1.214100792470484 0  4.065611571711903 1.066085524514197 0  2.165399002716117 3.335637450367864 0  3.007639563081306 1.093684039371638 0  4.030818285732145 4.351883315180857 0  3.504115222530889 1.739284194222036 0  1.224503368215566 4.712091441401919 0  3.805634204685714 1.321528442399996 0  4.319233123479386 1.573547993867769 0  1.024007670021325 4.394604704797005 0  3.776400432023095 3.839003324979723 0  2.991819819453308 4.320567175146181 0  0.9782797534072181 2.886406017887129 0  1.763835134082104 0.6602345487826022 0  3.765182288741625 1.631193038541544 0  2.267959593989681 2.345053543725764 0  4.412434895833333 4.168294270833333 0  4.4072265625 4.7255859375 0  2.791493971314009 3.11210833271929 0  3.408766223032414 3.469500900677365 0  1.915147569444444 4.725484476461039 0  2.070301968506271 0.2605666686358055 0  2.767932250651506 1.530295992695836 0  3.280065043173439 1.364863281105779 0  4.45101570110842 2.974157152713635 0  3.521928862999512 2.96990445010402 0  2.552921961347576 4.008414007169315 0  0.2682955376854191 3.657555015841003 0  3.084522868361304 2.310593316718068 0  2.669255823227708 1.939379494498064 0  2.615884629473921 2.238841231570381 0  1.405652091971449 0.8877813821442277 0  3.25151486618811 3.68536115104276 0  1.963741569810629 2.331207252264507 0  4.017297980292599 2.486269171379106 0  3.869168920841219 4.748188103831625 0  3.596868753579134 4.77342723825056 0  2.41262958240343 2.764128584995838 0  1.266750578673391 1.404747710001619 0  1.559243962241121 2.85146506328516 0  3.128799423834764 2.052081657715259 0  0.6770833333333333 0.9778025793650794 0  0.2083333333333333 0.78125 0  1.978224492765132 3.087074731032578 0  4.051448850909273 1.969392119104174 0  1.320577095006813 4.172234780971559 0  3.214261103850064 2.534397293281829 0  0.2635729089754111 1.779234736680035 0  3.510775680035133 4.460728640112889 0  2.603081405968802 0.2432579385496493 0  2.866341315154884 0.6662105505481998 0  3.000919221100777 0.2270278495648781 0  1.298858304121393 2.05917319923859 0  2.020292299736597 1.589794568392338 0  0.7401688396476035 4.470780315741533 0  0.6721783535561408 4.733125588707921 0  3.753712482075402 2.874301339727514 0  3.557348205914658 2.491958694539413 0  1.094565978195436 0.2011034254079851 0  0.9338148378011396 0.6833568465908735 0  2.945530578578538 3.701798332963805 0  3.111707186654356 3.216904195825605 0  1.341791111822685 3.293123262233967 0  1.632939924064587 1.184895891095613 0  0.6335477978936732 3.517393619499591 0  0.5576014611130192 3.210998966942492 0  1.564344196470102 0.3630498725895039 0  2.75362450242839 4.626680495816594 0  3.571304405229554 1.192452351107437 0  3.522934592621944 0.9359134489437148 0  4.453125 3.671875 0  4.765625 3.828125 0  1.055906321410838 4.14310472322957 0  4.795146539102229 0.46875 0  4.767156345199235 0.7178596932040019 0  0.2048534608977711 4.53125 0  0.232843654800765 4.282140306795998 0  0.5393715189906129 4.270810883024032 0  4.329922600274667 0.2750645887059072 0  4.275515096738972 0.5448389557295173 0  4.477747423652795 0.7252838358993123 0  0.2002829820452772 0.46875 0  0.4352678571428572 0.6956845238095237 0  0.5007241582667088 0.2123388122114133 0  4.672890923830735 0.2500902110494848 0  0.4308009280819452 4.783624996516437 0  2.104871305393774 4.438653689007242 0  0.2274454167838428 0.2274454167838428 0  3.446466574593436 0.4359605369011901 0  2.12354112127588 1.217588426759619 0  2.309175236825235 0.7888355970690434 0  2.556178570281936 1.054299163237582 0  0.578683248637
[...]
<PointData  Scalars="f_800-1"> 
<DataArray  type="Float64"  Name="f_800-1"  format="ascii">5.5845511575817137e-02  7.5097778266853266e-02  5.5117576003137034e-02  5.4905916675838516e-02  6.5169540956721006e-02  5.5097722629054283e-02  5.5531618277028370e-02  6.5538292616998173e-02  6.5160776037450754e-02  7.0563425663391896e-02  7.0225948334933105e-02  5.5416741887143524e-02  6.0457913343914087e-02  5.5098265161253698e-02  6.0125366283277699e-02  5.5127693745934479e-02  5.5474076720228242e-02  6.0945601076987710e-02  6.1330954873716391e-02  6.7704332155541863e-02  6.0141382883873502e-02  6.6209366296911390e-02  6.0407382949952050e-02  7.1579853044856576e-02  5.8711655852683182e-02  6.3407447722769600e-02  6.4087409858019223e-02  5.8149543596346581e-02  5.7720046433627006e-02  5.8307583463666726e-02  5.8836206497516648e-02  6.1690042636584556e-02  6.8581789339636393e-02  5.8180861162473521e-02  6.4974730302975695e-02  6.4023756729650716e-02  6.1246288812574420e-02  6.7390721731479669e-02  6.2953068133042023e-02  5.7632909787888147e-02  6.6634792402966728e-02  5.8018611814230833e-02  7.2750942988991638e-02  7.3075623213485291e-02  5.5147487127617675e-02  5.5592174053770281e-02  6.6003822637622930e-02  6.9319978830227655e-02  6.0605537720622389e-02  6.2604256514348686e-02  6.7675264748148306e-02  5.5725088677926769e-02  5.7600962979178397e-02  5.5071609314617812e-02  6.8045098738329091e-02  6.2996961819776667e-02  5.5503531879322394e-02  5.5107664286489055e-02  5.8279939041496052e-02  5.5504556014552557e-02  5.5102014464010550e-02  6.9256058041206589e-02  6.0538969556576241e-02  5.7898066956036720e-02  6.2903259660162275e-02  6.1075320910413289e-02  6.3996801441068674e-02  5.8689249783574399e-02  5.7738329235352992e-02  5.9961192032788400e-02  6.3669747211266822e-02  6.3132910856577906e-02  6.1847382432952479e-02  7.1818667041452622e-02  7.1180372667037098e-02  6.9647936910241376e-02  5.7013378055690102e-02  5.7106889834384271e-02  5.7602685609031173e-02  6.3897581087229732e-02  7.3261932299916649e-02  6.5973290212719360e-02  6.0070775396428661e-02  6.2240289677082172e-02  5.9980825797813705e-02  5.6498616281576423e-02  5.6948053684041752e-02  5.9735263728705620e-02  5.9195462527243399e-02  5.7279248010447287e-02  5.8850789990745077e-02  5.6818167394878383e-02  5.9288899183351555e-02  5.6395697626529413e-02  5.6827160571713546e-02  6.2199620161951776e-02  6.4273535480815908e-02  5.6389425905104359e-02  5.8938478859687053e-02  5.6722000130924648e-02  6.1802959928724997e-02  5.9886835034932431e-02  5.9688199938127524e-02  6.3429866616466435e-02  6.1871044232328976e-02  7.0375283080647819e-02  6.9305749289483243e-02  6.7653128140672592e-02  5.8414980572035924e-02  5.5490750312264379e-02  6.2514726970780948e-02  6.6786595498991061e-02  6.7467309519911062e-02  6.5791634924408107e-02  6.8127587858717933e-02  6.6265074859993861e-02  6.5691043612553637e-02  5.8639018041313030e-02  5.9227599749268840e-02  6.1642539904700450e-02  6.5133759171968550e-02  5.6758175486477158e-02  5.5498138868324054e-02  6.5495007071838113e-02  6.4725410265254857e-02  5.5102355321279356e-02  6.9628358713725427e-02  5.5522939005930430e-02  5.7037107556326461e-02  6.2290375217859205e-02  6.8496210054980688e-02  6.1689722116737615e-02  6.3043681176570193e-02  6.2699222349556202e-02  6.0348601359950745e-02  6.2026053151814919e-02  6.1275950034278347e-02  6.9457863572230299e-02  6.4183396394997205e-02  6.7905024044880941e-02  6.7942086521878081e-02  6.5100284851607806e-02  6.6410334417886033e-02  6.5746025175555320e-02  5.6369643727435019e-02  5.6557141000636066e-02  5.5489619023767894e-02  5.6783600946460018e-02  6.0454868887376424e-02  5.7669558822076653e-02  6.3643313920415168e-02  7.2700584619718928e-02  6.8956009870202159e-02  5.7071594725838587e-02  6.6481692395256989e-02  6.3930115183099073e-02  5.8945705397639575e-02  5.9527794058459496e-02  6.1361747346062735e-02  6.0310839077505257e-02  5.6322020952269639e-02  5.9145703656405299e-02  5.6374299456196361e-02  5.6343547670941567e-02  5.5117107726900275e-02  5.5887580974432347e-02  5.7015577585685540e-02  6.5588060146594657e-02  6.7275012339736692e-02  6.4672356687428781e-02  7.0490905695250267e-02  6.9946393851920613e-02  6.0397628027425911e-02  7.4014944544254335e-02  7.4299876571984363e-02  5.8189637761381446e-02  6.8951026520447448e-02  6.7169002298920005e-02  6.6417821542034516e-02  6.5075872445309477e-02  5.9345549132682071e-02  6.0891499455651289e-02  5.6785955436601393e-02  5.6333894150777705e-02  5.5539938617634677e-02  5.5490708820278838e-02  5.5106658574442288e-02  5.5498651123703176e-02  5.5077386781790007e-02  5.5080598315939630e-02  5.8861574150741447e-02  5.5119583948988873e-02  6.3876706477850514e-02  7.1484341762371242e-02  7.1814752335252058e-02  6.4259428372979682e-02  6.1726691636100124e-02  5.9098212292620661e-02  5.5114609768642367e-02  5.5134732920597500e-02  5.9092582339982748e-02  6.3020015628317716e-02  5.6181462019404528e-02  6.0116704248249428e-02  6.2232920406648788e-02  6.1373293057134487e-02  5.9916395678296597e-02  5.8478584002702977e-02  7.2323031708267455e-02  7.0660742545432323e-02  5.9030546870684916e-02  5.7823606976282152e-02  6.1249342176035802e-02  5.7477963194943735e-02  5.9663719061624924e-02  7.1081002820549119e-02  5.8819216727672853e-02  6.2147273900839184e-02  6.3106631551364922e-02  5.8138647531781690e-02  6.1110076022457799e-02  5.6691889434848347e-02  5.9886671986559462e-02  5.7804494959564814e-02  5.7989635029236403e-02  5.9812077408089165e-02  5.8178585884740050e-02  6.3974879357210968e-02  6.8153043848538472e-02  6.0042744059226723e-02  6.6067231204085933e-02  5.7437343695654695e-02  5.6595729654025435e-02  6.3262917364565865e-02  6.1341103520751158e-02  5.6570025443479291e-02  6.6891838432745890e-02  6.4105296529402805e-02  6.2009411323618278e-02  5.7303733545588847e-02  6.1055767625693563e-02  5.9447193320675558e-02  6.0838118880331700e-02  6.2828303590536067e-02  6.4499370980734785e-02  6.4714881969831550e-02  6.9597625423687012e-02  6.0923524644996917e-02  6.6517904544241765e-02  5.9052997124428873e-02  5.6499305956583749e-02  5.6361302146380465e-02  6.4721694558475359e-02  7.0253038357341313e-02  6.4107205539366274e-02  6.2656663201424614e-02  7.2298664544209870e-02  7.2433631286280220e-02  6.3147331877314208e-02  5.8897058603696026e-02  5.8791486946176939e-02  6.2302049223338624e-02  6.8427324643360210e-02  5.7639541421746134e-02  6.4744627808372854e-02  6.3666256827764736e-02  6.3118950060958953e-02  6.7292915918619578e-02  6.7107516941124837e-02  5.7551154379623118e-02  5.6504433767074695e-02  6.0130082698473454e-02  6.0934038982524107e-02  7.0852313218778065e-02  7.1460904719214666e-02  6.0749677892870120e-02  6.2506102114891493e-02  6.2338648404614797e-02  6.8673360015211515e-02  6.1430091954108652e-02  6.2659917574168639e-02  6.8958920942089358e-02  5.6975533267772674e-02  6.0827277347133883e-02  6.1031875665681024e-02  5.7314522837246792e-02  5.6062962770138988e-02  5.8916789988241673e-02  5.5900612544105326e-02  5.6033579801039478e-02  5.7587672984903117e-02  5.8290715752110159e-02  5.8360944100310036e-02  5.7785708576552908e-02  5.7992759618547267e-02  5.7179341304167332e-02  7.5037000144456759e-02  7.3762953668795511e-02  7.3250248079399186e-02  5.6403701142935463e-02  5.6565875223012881e-02  5.7759800131729863e-02  7.4043181471466935e-02  6.1306500734486839e-02  6.6699678107632179e-02  6.5947273570929790e-02  6.4958872266033724e-02  5.9597944588214234e-02  6.2018473699649287e-02  6.6543779566199571e-02  5.9917630666351585e-02  5.9650907520702512e-02  5.6099133723224795e-02  5.5992933677336612e-02  5.6038735374443198e-02  7.0472563371411681e-02  6.0331834329463208e-02  6.0320919491226060e-02  6.2864144200830835e-02  5.7679448616425412e-02  6.2821323173165272e-02  6.0356598087068281e-02  6.8528843069036130e-02  6.2095454939584738e-02  6.1359561867784872e-02  5.7726693279637087e-02  6.8322785017077989e-02  5.7287769852422177e-02  5.8520587792744341e-02  6.6458153492825939e-02  5.5988342743826927e-02  6.9934649141696739e-02  6.5318351881049397e-02  5.8533619057454953e-02  5.9071897642494722e-02  5.9189690186870252e-02  5.6167039871074104e-02  6.3875698649780016e-02  6.4906079803402919e-02  5.5732330322708482e-02  5.7073937406754656e-02  6.7306504864393088e-02  6.1979044021217337e-02  6.1854064315938512e-02  5.8560403682614733e-02  6.0726664853954296e-02  5.5742074719344975e-02  5.9044522843040362e-02  6.3879105364940889e-02  5.6350200332053436e-02  6.5014960377998268e-02  6.9470768377434280e-02  7.1586752753491634e-02  7.1001993192010907e-02  6.1871249111268935e-02  6.2368307993608429e-02  6.6155293825424982e-02  5.5731077884348459e-02  5.5735253147852389e-02  5.6117077928497468e-02  5.6583661239687152e-02  5.5573678848818704e-02  5.9266618778172971e-02  5.8017422983533129e-02  6.4021792936168401e-02  5.6186715458992363e-02  6.2879718403990051e-02  5.8773565687444955e-02  5.8966336887683976e-02  6.0081037215449357e-02  6.4350985264153449e-02  6.3678246605188060e-02  7.2083795133525197e-02  5.7796974613316544e-02  6.2404825891595898e-02  6.6684314293824598e-02  6.5602857896813624e-02  5.6128272903270320e-02  6.8203458209402296e-02  6.8065364932230518e-02  6.9037862144395112e-02  6.7437241425520336e-02  5.9317754513985001e-02  6.4881251847029892e-02  6.1295651704439749e-02  6.3005591436062700e-02  5.9746905681505973e-02  5.8578506650688277e-02  5.6859224831854883e-02  6.3208159523331545e-02  6.5097627998278618e-02  7.0354938221140834e-02  5.7674972327647130e-02  6.8227542245568013e-02  6.8216045865022168e-02  5.7780701416975472e-02  6.3591151118638167e-02  6.2023253639723733e-02  5.6754247593725181e-02  6.4504428113927315e-02  7.1476997931232730e-02  6.7644572149611240e-02  5.9461041180036651e-02  5.8123783733677784e-02  6.3567900026268220e-02  5.8262344146173796e-02  5.6469380163689457e-02  6.3113041255855054e-02  6.8963021974052977e-02  5.5692851652411786e-02  6.5652782945103974e-02  6.5289986417504081e-02  6.5833818120222112e-02  5.7572191069543699e-02  6.1781774474542805e-02  6.3136464669498862e-02  6.0786587432308144e-02  7.0552446315877329e-02  6.6781699451769705e-02  5.5441944215430194e-02  6.5567950241208747e-02  5.9948376139704815e-02  6.0073343458703639e-02  5.7607184493776671e-02  6.4613311597822826e-02  6.5746449017274916e-02  6.0596926836670735e-02  6.1003399561472091e-02  5.9961492300596497e-02  5.9267301227974890e-02  6.9583270848583539e-02  6.3782852819029318e-02  5.6123904142961305e-02  5.7121339062222769e-02  5.8805099825714392e-02  6.5057102514786941e-02  5.9478590143376357e-02  6.3937692043167418e-02  5.8986026034546217e-02  6.9281438044012655e-02  5.6919097965125780e-02  6.1612152734176764e-02  6.6705398560362464e-02  6.0561150888763002e-02  5.6064381182338321e-02  6.8502244155474179e-02  6.1933006640283020e-02  6.3911717018776557e-02  6.7453558311838885e-02  5.6973490498267568e-02  6.2072647549646934e-02  6.6828082871399686e-02  5.7578890546456603e-02  5.6339957841709830e-02  5.7201841522428860e-02  5.5492617383060383e-02  6.7121211874974177e-02  6.9585247919441470e-02  6.4838766685132290e-02  6.9164021360570913e-02  6.1541503302601851e-02  6.2484633388881508e-02  6.5332539263140713e-02  5.8236880678877494e-02  5.8475672186369662e-02  6.4562886746282966e-02  5.7340503562941833e-02  6.7804232306302864e-02  6.2524784846919382e-02  7.0199255467361138e-02  5.9601142530046565e-02  6.8968829400386664e-02  6.8043642302052176e-02  6.5835515176474360e-02  6.4415523122774612e-02  6.4422537504584196e-02  6.1215970546185293e-02  6.0535976252164156e-02  6.2677955872822377e-02  7.1560084664546691e-02  5.5581167070819157e-02  5.7274390188508509e-02  5.7193485897865756e-02  5.7266647065904702e-02  6.5952383606186743e-02  5.5504011446485167e-02  6.9115354920114835e-02  6.6455947055160752e-02  6.5826345427494312e-02  5.8348374778136904e-02  6.3468090542755706e-02  6.3399182818432070e-02  5.8318291376633830e-02  6.2980150772464535e-02  5.5068623368653882e-02  5.6472746441247341e-02  5.9817172077515350e-02  5.8183495941021568e-02  6.0218773123265880e-02  5.8113165622846789e-02  5.9214881176824011e-02  6.2235983106096161e-02  6.5467101101354355e-02  7.2118354504839860e-02  5.5106266628316213e-02  5.5787945910424228e-02  5.6180849634051080e-02  6.7614801628893245e-02  6.0786221071225277e-02  6.1146348878627688e-02  6.0667485856002415e-02  5.6345849476158082e-02  6.7212716673528225e-02  5.8644900403117338e-02  6.7275783363510436e-02  6.7130706501063495e-02  5.9285132033368208e-02  6.1090310029951723e-02  5.9595623698648952e-02  5.6066561858292278e-02  5.6109709076543779e-02  6.6209047077614963e-02  6.8610355045795948e-02  6.4566030802197347e-02  5.6679378851514667e-02  5.7806089029086703e-02  6.0397793696752813e-02  6.1042159396075692e-02  6.0536028492415107e-02  5.9864741273069531e-02  5.9193453088598122e-02  5.8004904524725218e-02  5.8250888511145758e-02  6.5384922147668015e-02  5.5096039131088043e-02  5.8414151034146884e-02  5.8582725252958615e-02  5.9398980294883511e-02  5.5732620779844602e-02  5.6685754703181802e-02  5.5826495409606693e-02  5.5096847085942015e-02  5.8295119270566069e-02  5.8203077011073134e-02  6.6730875616029611e-02  6.6604761792747963e-02  6.1974293404642791e-02  5.7467833802773927e-02  5.6152112691749100e-02  6.1619149108270356e-02  5.5721710990643672e-02  5.6919876674713349e-02  6.4332792088785382e-02  6.3789746266243993e-02  5.6627102060562109e-02  5.7920183682407596e-02  6.1590205652343077e-02  6.7810581635751682e-02  5.9474823120113866e-02  5.7133470877553286e-02  5.7087852079866101e-02  7.3029086664940748e-02  7.3069634146790602e-02  7.2018395322170595e-02  6.0651713081138973e-02  5.5716704670822306e-02  6.1039350887924733e-02  6.8673281322274862e-02  5.5736984420295468e-02  5.7060781543573927e-02  6.2984558762146717e-02  6.1502247528869902e-02  5.8450835647868044e-02  5.5700804384988298e-02  6.3010172170167675e-02  5.7091557614636607e-02  5.5775622988095984e-02  6.8930183654626165e-02  6.3442825465629293e-02  6.1935365605396635e-02  5.7039228170571526e-02  5.5707206932293647e-02  6.1348651382812258e-02  6.0390524907934930e-02  7.0605022978550758e-02  6.2520904681695647e-02  5.5129671104187664e-02  6.4842745259450954e-02  6.7587549487765158e-02  6.4642528538688543e-02  6.1523109149264038e-02  6.5330317751495906e-02  6.4973526162834153e-02  6.6462045360734134e-02  5.7070508529198032e-02  6.0105812295670920e-02  7.2721069410651679e-02  6.4678287604218496e-02  6.9784228186050443e-02  7.0196868061834200e-02  6.9700877831424604e-02  7.0902346795913854e-02  7.0931385479319140e-02  5.5724904292120618e-02  5.5076971778806022e-02  6.4199649921458310e-02  6.3795761316788116e-02  6.4322009967411109e-02  6.4045875463022844e-02  7.3541672680832643e-02  6.0810299053101875e-02  5.6587169296974382e-02  6.7045632697295979e-02  5.7555145132999794e-02  5.7101889066079790e-02  5.6846763077562770e-02  5.9749852764766437e-02  5.7662671001351314e-02  6.6483970258429947e-02  5.8638819732226080e-02  6.3446777994543388e-02  5.7301902088888544e-02  5.6800334745360156e-02  7.4609260437737551e-02  7.4349662561706789e-02  5.8411226626590609e-02  6.4513765232114023e-02  5.6550423588528777e-02  7.3786137006319946e-02  5.8734386892763765e-02  5.5655760837603763e-02  6.9546909388347830e-02  6.9679131472478117e-02  6.1601336455515403e-02  5.8714141927687154e-02  6.2578160714325884e-02  6.6584499245435899e-02  5.5481834917847778e-02  7.2640788777781157e-02  5.7389430156173496e-02  5.8856447965519476e-02  6.7285915795026005e-02  5.7968557880220206e-02  7.1186462260667743e-02  6.2008620649990957e-02  5.8308376252374422e-02  5.9125290795687367e-02  6.0691734348606391e-02  5.8801392976349183e-02  6.1345210794861250e-02  6.2449688207055716e-02  6.5749755625853931e-02  6.1046797725834830e-02  5.9468092068868911e-02  5.6361073265182776e-02  5.5684887267060675e-02  5.8565525454157157e-02  6.5531507269867340e-02  5.6122470555217970e-02  5.5704939587061082e-02  6.5789615537560436e-02  5.5584521301438726e-02  5.5535856891545200e-02  5.5573822267349249e-02  5.6387022049086716e-02  5.5796647519995669e-02  5.5573426616047049e-02  6.2358909016471807e-02  5.5603114885968669e-02  5.5108229078551500e-02  6.0745457621466992e-02  6.1983393879387297e-02  5.5090182503183364e-02  5.5103048600918185e-02  5.5104412294954053e-02  6.7417367720311649e-02  6.6162070980862422e-02  6.4902163672671709e-02  5.5508168819427592e-02  6.9938330909540727e-02  6.8323426204532495e-02  5.9489546955389459e-02  5.9811295432313560e-02  5.5818218693764077e-02  7.3381033979880245e-02  5.7669604651485531e-02  5.5117988564086513e-02  7.0854692312531789e-02  6.3244062677701704e-02  7.3648094969072542e-02  7.2440532873618457e-02  5.5470252616221634e-02  5.5125003362606555e-02  5.5061283654110574e-02  5.5274608994581760e-02  6.3630970234526643e-02  5.5509292106726719e-02  7.1193514676570008e-02  5.5124638704277487e-02  5.5157902889840807e-02  5.5110326828848040e-02  5.9924616227948015e-02  5.7900142306914815e-02  6.2482364703003480e-02  5.6127333161047031e-02  6.3357826144703658e-02  5.6256489814530769e-02  7.0331448532648680e-02  7.0581970054204468e-02  7.1489285311011480e-02  5.7112377861638475e-02  7.1802564851510584e-02  6.8575103408122381e-02  7.0859699416128949e-02  5.9353576290592222e-02  6.5415904167067426e-02  6.6583288857190837e-02  5.8753933391154804e-02  6.3647031355546876e-02  6.3059707133753612e-02  6.2493807401128559e-02  6.4898827612841034e-02  7.0051280661160217e-02  7.1212881283931190e-02  5.7001658568792621e-02  6.0595836924697048e-02  5.9954045289887063e-02  5.7698349155341173e-02  6.9740656245537949e-02  5.5770101054114112e-02  6.3239720103842281e-02  5.9116455009255747e-02  6.6423499326943719e-02  6.7932492445789416e-02  6.3716234180419329e-02  5.9547603803764788e-02  6.3549203830385148e-02  6.7115929233768010e-02  6.6589777484242649e-02  5.9752099966016492e-02  5.6695213573716319e-02  6.8270132932176694e-02  5.7829537063705402e-02  5.7356280384658169e-02  6.3754918692978085e-02  6.1636660682957832e-02  6.8276399929400280e-02  6.1222886602481853e-02  6.9917466075959195e-02  5.7095711719607929e-02  6.2031458982225555e-02  6.1687299295917299e-02  5.8434285982096316e-02  5.9681983550598096e-02  5.9429173335084136e-02  5.8598357256981072e-02  5.8701480246986758e-02  5.8253859521525460e-02  6.4291965021829281e-02  5.9081935692918364e-02  6.1194026191154140e-02  6.4732147358834910e-02  6.0508517232767373e-02  6.0166044875335896e-02  5.6632966448094194e-02  6.3240061161765546e-02  6.0525536084154057e-02  6.0185177858999572e-02  5.8874800826794214e-02  5.9553933353159991e-02  6.2787759588193826e-02  6.2527893539101903e-02  6.1666642517931788e-02  6.6066986022472393e-02  5.7742512763664988e-02  5.7404017812462439e-02  5.7303238153431420e-02  5.7772586860961643e-02  5.8166091843069791e-02  5.7408938692413279e-02  5.7040118546582072e-02  6.2528701739847578e-02  6.3484701855438155e-02  5.7155591560950042e-02  5.5856869314365100e-02  5.7616665516979595e-02  6.1726603565528268e-02  6.4035923710629286e-02  6.5875404149200581e-02  6.2226961376189500e-02  5.9061197490565140e-02  6.8558527453864537e-02  6.4495936610591206e-02  5.6801210915782996e-02  6.9096579310507722e-02  5.9944494284927263e-02  5.8416709380004983e-02  5.8025366979010590e-02  5.5770466110729708e-02  5.8181893645417676e-02  5.6225412632159966e-02  6.3972380547793820e-02  6.2689425364754803e-02  6.4045680248823358e-02  6.5157059383553206e-02  5.9671953930499656e-02  5.9456193865333157e-02  6.0835607242621638e-02  5.6590211172175046e-02  6.5650719672958574e-02  6.2575051470935061e-02  6.4008782139244894e-02  6.4573721288505082e-02  5.7280138307557731e-02  5.6016360136924966e-02  5.9421769283229585e-02  5.6024754113868258e-02  5.9335410493872226e-02  5.6654871645954410e-02  5.6772324179290234e-02  5.8596275457206880e-02  6.2588169916922579e-02  5.6586327932389040e-02  5.8431157078290080e-02  5.9590878126340840e-02  5.7096999350620743e-02  5.7715601359767277e-02  5.8215421561580522e-02  5.6922544512200204e-02  6.49895028505