<?xml version="1.0"?>
<VTKFile type="UnstructuredGrid"  version="0.1"  >
<UnstructuredGrid>
<Piece  NumberOfPoints="6486" NumberOfCells="12696">
<Points>
<DataArray  type="Float64"  NumberOfComponents="3"  format="ascii">0 5 0  0 0 0  5 0 0  5 5 0  2.5 0 0  5 2.5 0  2.5 5 0  0 2.5 0  2.5 2.5 0  0 1.25 0  1.25 0 0  1.25 5 0  0 3.75 0  5 1.25 0  3.75 0 0  5 3.75 0  3.75 5 0  3.541666666666667 1.458333333333333 0  1.458333333333333 3.541666666666667 0  1.875 1.25 0  3.75 3.125 0  1.284722222222222 2.326388888888889 0  2.683189655172414 3.767959770114943 0  0.9375 0.9375 0  4.0625 4.0625 0  0.7252209595959597 3.026357323232324 0  2.763480392156863 0.9129901960784315 0  1.875 4.345238095238095 0  4.345238095238095 1.875 0  4.192708333333333 0.8072916666666664 0  0.8072916666666665 4.192708333333334 0  3.368055555555555 2.326388888888889 0  0.6837606837606839 1.738782051282051 0  3.285485245626782 4.324328415208927 0  2.551239698778062 1.693130150610969 0  1.827256944444444 2.868923611111111 0  3.464875022477093 0.6813924607921316 0  1.942880513719175 2.059558626187995 0  3.04563492063492 2.971230158730159 0  4.375 3.4375 0  2.13639445139758 0.5994472256987903 0  4.272228422619047 2.606956845238095 0  0.625 0 0  0 0.625 0  5 4.375 0  4.375 5 0  0.6400043240752655 2.384646170113389 0  1.347691225855598 1.660875475110776 0  3.515783617857982 3.723905460714006 0  3.125 0 0  1.875 0 0  0.625 5 0  4.375 0 0  5 1.875 0  0 1.875 0  0 3.125 0  1.875 5 0  5 0.625 0  0 4.375 0  3.125 5 0  5 3.125 0  1.489644181965304 0.6007147273217681 0  2.054597701149425 3.742302955665024 0  2.662520990197781 4.39452575763237 0  2.415835363784578 3.165530021913244 0  0.8679986894865213 3.602373689486522 0  1.267459753787878 2.886186079545454 0  4.099702380952381 1.365327380952381 0  1.316964285714286 4.438244047619047 0  3.7915135293491 1.959691594758709 0  2.875141124191255 2.118761176511833 0  3.00418010501169 1.397414179299248 0  0.4081721322167092 3.410647930198662 0  0.4166666666666666 0.9375 0  1.014190407998288 0.4422301359994293 0  1.383260571305984 1.162718286082048 0  4.53125 3.90625 0  4.453125 4.453125 0  3.772848162504192 4.48678272083473 0  2.8125 0.404329517041716 0  0.4538690476190476 0.4538690476190476 0  2.305461739347387 1.04517007574828 0  3.771263799175824 2.624190260297553 0  3.229617768018734 1.809956994202883 0  3.780190884441317 1.025307111692601 0  4.646337365591398 0.9375 0  4.537623451379149 0.4609485750426037 0  1.200477888421151 3.934852888421152 0  0.3536626344086022 4.0625 0  0.4623765486208503 4.539051424957397 0  4.0625 0.353662634408602 0  4.560525106689535 1.390989100915847 0  3.958439078571988 3.619844539285994 0  4.672619047619047 2.1875 0  2.1875 4.672619047619047 0  1.862808494877602 3.325947624431087 0  0.3268135998175443 2.8125 0  4.674181280189791 2.8125 0  2.283233994935276 4.138623547175983 0  0.9375 4.677879119362977 0  3.08488061581743 3.469889594488945 0  3.113427375573758 3.913955730709506 0  1.652847799068813 3.950848935641292 0  2.932652662909449 2.550542739521724 0  3.311350648514189 1.088831994878698 0  0.6770833333333333 1.295851139601139 0  0 1.5625 0  1.047214787840024 1.96818092308125 0  4.183331482095785 3.03958703580843 0  3.4375 5 0  1.071307777252521 3.246275861010018 0  0 2.1875 0  0.386576856303419 2.03125 0  1.713862716483534 2.439783116849799 0  1.775396256975935 1.665976816304977 0  2.231236976948428 1.443917394671254 0  2.373900732409897 2.086930260150635 0  4.114918237574474 2.221646174618671 0  3.661302567757379 4.099620139144836 0  3.378215938602977 2.734494874063393 0  0.9842097536079312 2.597286741306247 0  1.642795138888889 4.672619047619047 0  4.0625 5 0  2.099458800960004 2.567446522665629 0  2.616202751603346 1.297895893940078 0  5 4.6875 0  0.9937554350075428 1.512592975947215 0  2.8125 5 0  3.002695327068194 4.614055254615477 0  3.205627424097207 0.3852436382721472 0  1.678616581261621 0.927556612265266 0  3.365326698305438 3.196943731162083 0  1.554834936170314 3.120009882655813 0  3.108408340729323 0.7797187795784133 0  3.684368918102174 0.3728877601163941 0  2.716214835303553 3.39276351922003 0  2.37718583984784 3.551973401560441 0  0.3750662445374837 1.52191994866787 0  2.679073487930202 2.844160731602957 0  1.557635869750078 1.991068682985722 0  1.812595698561088 0.3839273018252746 0  2.512014721281916 0.6320641118792227 0  2.1875 0 0  2.349973454443689 0.3189980586887866 0  4.6875 3.59375 0  4.636052949022233 3.178355898044465 0  4.6875 5 0  3.345485909784306 4.665765449101383 0  0.536727472389443 3.749603193819277 0  4.349541499640203 1.116201826262156 0  2.886559045931982 1.774013674579691 0  0.6770833333333334 0.7142857142857143 0  1.5625 0 0  4.120842096538671 4.628726497527622 0  2.176157474177018 1.793470423744689 0  2.175650736889416 2.909863021769539 0  4.036616464259081 1.709699085170981 0  3.887974623473683 0.6492597046022868 0  3.4375 0 0  3.70675699592552 2.289666624772415 0  4.697265625 4.208984375 0  2.815177577303495 4.085937578239174 0  4.672619047619047 1.730733296184288 0  4.6875 0 0  5 0.3125 0  0.3125 5 0  0 4.6875 0  0.3276089296588581 2.484526834811734 0  0.712433309515852 2.065138854645612 0  0.6376435912223634 2.711473454001295 0  1.184991292170422 0.7222504400947201 0  1.31884329779317 0.3206944232264773 0  3.683609198994263 3.44428698533042 0  0.3125 0 0  0 0.3125 0  4.231797269642997 3.789141808928991 0  1.564375596050781 1.425998687184973 0  2.007640894175573 0.9032106925568466 0  0.955125897558294 2.276666098587227 0  1.43898735721003 2.611310720271951 0  1.954491523717513 4.040700257877075 0  1.752947649777421 3.652439445419346 0  2.509575750247638 4.678021307664052 0  4.687194709705067 2.499965519538002 0  1.5625 5 0  0.9375 5 0  5 2.8125 0  2.1875 5 0  5 1.5625 0  5 2.1875 0  4.0625 0 0  5 0.9375 0  2.8125 0 0  0.9375 0 0  0 0.9375 0  0 2.8125 0  0 3.4375 0  0 4.0625 0  5 3.4375 0  5 4.0625 0  4.010848109290813 3.306446973933037 0  0.3077461147713075 3.119700563473354 0  4.6796875 4.6796875 0  2.333079012424948 3.845757959077508 0  0.7829771267899832 3.317744656243421 0  1.159100632608513 3.532487125138763 0  0.799066251840424 3.893573750162776 0  1.57326499580282 4.255438189102632 0  0.7309366047093668 0.2991402264438908 0  0.3054777494262156 1.223275888123843 0  4.027475154280377 2.78211326942427 0  2.35270874745988 4.426658168476266 0  3.474236283732569 2.021154281686229 0  4.401414236174444 2.329446628171927 0  3.39403781747337 3.987097102903034 0  1.077524329801934 1.214100792470484 0  4.065611571711903 1.066085524514197 0  2.165399002716117 3.335637450367864 0  3.007639563081306 1.093684039371638 0  4.030818285732145 4.351883315180857 0  3.504115222530889 1.739284194222036 0  1.224503368215566 4.712091441401919 0  3.805634204685714 1.321528442399996 0  4.319233123479386 1.573547993867769 0  1.024007670021325 4.394604704797005 0  3.776400432023095 3.839003324979723 0  2.991819819453308 4.320567175146181 0  0.9782797534072181 2.886406017887129 0  1.763835134082104 0.6602345487826022 0  3.765182288741625 1.631193038541544 0  2.267959593989681 2.345053543725764 0  4.412434895833333 4.168294270833333 0  4.4072265625 4.7255859375 0  2.791493971314009 3.11210833271929 0  3.408766223032414 3.469500900677365 0  1.915147569444444 4.725484476461039 0  2.070301968506271 0.2605666686358055 0  2.767932250651506 1.530295992695836 0  3.280065043173439 1.364863281105779 0  4.45101570110842 2.974157152713635 0  3.521928862999512 2.96990445010402 0  2.552921961347576 4.008414007169315 0  0.2682955376854191 3.657555015841003 0  3.084522868361304 2.310593316718068 0  2.669255823227708 1.939379494498064 0  2.615884629473921 2.238841231570381 0  1.405652091971449 0.8877813821442277 0  3.25151486618811 3.68536115104276 0  1.963741569810629 2.331207252264507 0  4.017297980292599 2.486269171379106 0  3.869168920841219 4.748188103831625 0  3.596868753579134 4.77342723825056 0  2.41262958240343 2.764128584995838 0  1.266750578673391 1.404747710001619 0  1.559243962241121 2.85146506328516 0  3.128799423834764 2.052081657715259 0  0.6770833333333333 0.9778025793650794 0  0.2083333333333333 0.78125 0  1.978224492765132 3.087074731032578 0  4.051448850909273 1.969392119104174 0  1.320577095006813 4.172234780971559 0  3.214261103850064 2.534397293281829 0  0.2635729089754111 1.779234736680035 0  3.510775680035133 4.460728640112889 0  2.603081405968802 0.2432579385496493 0  2.866341315154884 0.6662105505481998 0  3.000919221100777 0.2270278495648781 0  1.298858304121393 2.05917319923859 0  2.020292299736597 1.589794568392338 0  0.7401688396476035 4.470780315741533 0  0.6721783535561408 4.733125588707921 0  3.753712482075402 2.874301339727514 0  3.557348205914658 2.491958694539413 0  1.094565978195436 0.2011034254079851 0  0.9338148378011396 0.6833568465908735 0  2.945530578578538 3.701798332963805 0  3.111707186654356 3.216904195825605 0  1.341791111822685 3.293123262233967 0  1.632939924064587 1.184895891095613 0  0.6335477978936732 3.517393619499591 0  0.5576014611130192 3.210998966942492 0  1.564344196470102 0.3630498725895039 0  2.75362450242839 4.626680495816594 0  3.571304405229554 1.192452351107437 0  3.522934592621944 0.9359134489437148 0  4.453125 3.671875 0  4.765625 3.828125 0  1.055906321410838 4.14310472322957 0  4.795146539102229 0.46875 0  4.767156345199235 0.7178596932040019 0  0.2048534608977711 4.53125 0  0.232843654800765 4.282140306795998 0  0.5393715189906129 4.270810883024032 0  4.329922600274667 0.2750645887059072 0  4.275515096738972 0.5448389557295173 0  4.477747423652795 0.7252838358993123 0  0.2002829820452772 0.46875 0  0.4352678571428572 0.6956845238095237 0  0.5007241582667088 0.2123388122114133 0  4.672890923830735 0.2500902110494848 0  0.4308009280819452 4.783624996516437 0  2.104871305393774 4.438653689007242 0  0.2274454167838428 0.2274454167838428 0  3.446466574593436 0.4359605369011901 0  2.12354112127588 1.217588426759619 0  2.309175236825235 0.7888355970690434 0  2.556178570281936 1.054299163237582 0  0.578683248637
[...]
<PointData  Scalars="f_800-1"> 
<DataArray  type="Float64"  Name="f_800-1"  format="ascii">1.1620273079278699e-02  3.0870202486549578e-02  1.0890210735112378e-02  1.0678372895754254e-02  2.0941965174855800e-02  1.0870199526342689e-02  1.1305874953992949e-02  2.1310727974704742e-02  2.0933200255518862e-02  2.6335849882679205e-02  2.5998372554201801e-02  1.1191888620762001e-02  1.6230522390186797e-02  1.0870798665308375e-02  1.5897790521944878e-02  1.0900146637782980e-02  1.1246553391554536e-02  1.6718025293712160e-02  1.7103394682150615e-02  2.3476756374333246e-02  1.5913807109952022e-02  2.1981790515297087e-02  1.6179807209547190e-02  2.7352277264278746e-02  1.4484080190948212e-02  1.9179887292554477e-02  1.9859834075844289e-02  1.3922392292678889e-02  1.3492471333453399e-02  1.4080008040675537e-02  1.4609053381512378e-02  1.7462466854655401e-02  2.4354213558578867e-02  1.3953286400241002e-02  2.0747154521064633e-02  1.9796180947634807e-02  1.7018713026438689e-02  2.3163145950102909e-02  1.8725492350730139e-02  1.3405334526988942e-02  2.2407216621495234e-02  1.3791036350065714e-02  2.8523367208565548e-02  2.8848047433064954e-02  1.0919931874958507e-02  1.1364632106730320e-02  2.1776246853179158e-02  2.5092403049254836e-02  1.6377961952449706e-02  1.8376680731182645e-02  2.3447688966924226e-02  1.1499904285214975e-02  1.3373391091622822e-02  1.0844102600710974e-02  2.3817522962768636e-02  1.8769433182030681e-02  1.1278402279103157e-02  1.0880236374063903e-02  1.4052970889326265e-02  1.1277244084562607e-02  1.0874479103870778e-02  2.5028482260314115e-02  1.6311394310849343e-02  1.3670506468735475e-02  1.8675683878576741e-02  1.6847869115866870e-02  1.9769225648429922e-02  1.4461674077895607e-02  1.3511500714823299e-02  1.5733616253292466e-02  1.9442171429027957e-02  1.8905335074130277e-02  1.7619892135107288e-02  2.7591091260912540e-02  2.6952796886445578e-02  2.5420361129417549e-02  1.2785803497425216e-02  1.2879315335380866e-02  1.3375111826621214e-02  1.9670005304995648e-02  2.9034356519525895e-02  2.1745714431077923e-02  1.5843199622122880e-02  1.8012713894518577e-02  1.5753250007008650e-02  1.2271054736562259e-02  1.2720487637172206e-02  1.5507936359948927e-02  1.4968247887481474e-02  1.3052719571726382e-02  1.4623214487294207e-02  1.2590596061354063e-02  1.5061323433907824e-02  1.2168128662488733e-02  1.2600461387211137e-02  1.7972044383794353e-02  2.0045979544393046e-02  1.2161855722826473e-02  1.4710918965333374e-02  1.2495764943297981e-02  1.7575384149885104e-02  1.5659259325227725e-02  1.5460745963974171e-02  1.9202290834166483e-02  1.7643468449199794e-02  2.6147707299913385e-02  2.5078173508364558e-02  2.3425552359412675e-02  1.4187404938458003e-02  1.1263254186908900e-02  1.8287164305779903e-02  2.2559020070444070e-02  2.3239733737019357e-02  2.1564059142682550e-02  2.3900012077569862e-02  2.2037499078432093e-02  2.1463467830825048e-02  1.4411442367036831e-02  1.5000024128889233e-02  1.7414964122912754e-02  2.0906183392765256e-02  1.2531846359746909e-02  1.1270606606209285e-02  2.1267431290000520e-02  2.0497834483273362e-02  1.0874799526246546e-02  2.5400782932851067e-02  1.1296243063461827e-02  1.2809547613504295e-02  1.8062799434468171e-02  2.4268634273941773e-02  1.7462146335026636e-02  1.8816105385170714e-02  1.8471646566863512e-02  1.6121025566946331e-02  1.7798477372438788e-02  1.7048374264120428e-02  2.5230287791342215e-02  1.9955820612851963e-02  2.3677448263632057e-02  2.3714510740716364e-02  2.0872709069724372e-02  2.2182758636353907e-02  2.1518449393848924e-02  1.2142071970506004e-02  1.2329568681642105e-02  1.1262070768491644e-02  1.2556034451191883e-02  1.6227474213194794e-02  1.3441984060998398e-02  1.9415738138169599e-02  2.8473008839252228e-02  2.4728434089248342e-02  1.2844022832685943e-02  2.2254116613749930e-02  1.9702539401067129e-02  1.4718129677927617e-02  1.5300218270671873e-02  1.7134171558763431e-02  1.6083263297343262e-02  1.2094448444825556e-02  1.4918128174537084e-02  1.2146731590323449e-02  1.2116006994726399e-02  1.0889712873879590e-02  1.1662234963040974e-02  1.2789220342387822e-02  2.1360484793769351e-02  2.3047436558535861e-02  2.0444781298342977e-02  2.6263329914564974e-02  2.5718818071147009e-02  1.6170052250956538e-02  2.9787368763914301e-02  3.0072300791640177e-02  1.3962062168177559e-02  2.4723450739479659e-02  2.2941426517583238e-02  2.2190245760624758e-02  2.0848296663337287e-02  1.5118029289041423e-02  1.6663928030057999e-02  1.2558775583920909e-02  1.2106325779799915e-02  1.1314835992655996e-02  1.1265849936808172e-02  1.0879129463817522e-02  1.1273405503924132e-02  1.0849897385171486e-02  1.0853082591728704e-02  1.4633998840615944e-02  1.0892132887642779e-02  1.9649130695591766e-02  2.7256765981815236e-02  2.7587176554709058e-02  2.0031876491009494e-02  1.7499210380220336e-02  1.4871045543775616e-02  1.0887067729186633e-02  1.0907181359745910e-02  1.4865006604489282e-02  1.8792485515813844e-02  1.1953891230227340e-02  1.5889128535422070e-02  1.8005403553904412e-02  1.7145780733783162e-02  1.5689057774730817e-02  1.4251467718875728e-02  2.8095455927805275e-02  2.6433166764739252e-02  1.4802971134902743e-02  1.3596169560573315e-02  1.7021766393437211e-02  1.3250388477908978e-02  1.5436143377531049e-02  2.6853427039865471e-02  1.4591640982362290e-02  1.7919698122077436e-02  1.8879055768866271e-02  1.3911072408606229e-02  1.6882500238859708e-02  1.2465647853642129e-02  1.5659096202093249e-02  1.3576919766123805e-02  1.3762722120255599e-02  1.5584501654418867e-02  1.3951011226943418e-02  1.9747303514320597e-02  2.3925468067425525e-02  1.5815168280747562e-02  2.1839655422382635e-02  1.3209768517327273e-02  1.2368159715350560e-02  1.9035341582577539e-02  1.7113527741363477e-02  1.2343766911130972e-02  2.2664262651337135e-02  1.9877720747259162e-02  1.7781835540593673e-02  1.3076158790955042e-02  1.6828191845123432e-02  1.5219617766757152e-02  1.6610692692630841e-02  1.8600727808200955e-02  2.0271795198695354e-02  2.0487306187840160e-02  2.5370049642857998e-02  1.6695948876606095e-02  2.2290328762646878e-02  1.4825421378013766e-02  1.2271740605565653e-02  1.2133740851375840e-02  2.0494118776449070e-02  2.6025462576533959e-02  1.9879629758015101e-02  1.8429087419076097e-02  2.8071088763668820e-02  2.8206055505805430e-02  1.8919756095486500e-02  1.4669482892591516e-02  1.4564329141006341e-02  1.8074473441088375e-02  2.4199748862310726e-02  1.3411967871345588e-02  2.0517052026388049e-02  1.9438681045457415e-02  1.8891374278357069e-02  2.3065340137274827e-02  2.2879941159777130e-02  1.3324438497920922e-02  1.2278432992049089e-02  1.5902506924878362e-02  1.6706463202046898e-02  2.6624737438141231e-02  2.7233328938661688e-02  1.6522102130799857e-02  1.8278526333052703e-02  1.8111074113616153e-02  2.4445784234211163e-02  1.7202621703476400e-02  1.8432394872957416e-02  2.4731345161138677e-02  1.2748039645304595e-02  1.6599701562481622e-02  1.6804299879698927e-02  1.3086947871767316e-02  1.1835392848513294e-02  1.4689615281832352e-02  1.1673086602892084e-02  1.1806039444312797e-02  1.3360979322562137e-02  1.4063753479083965e-02  1.4133927995758392e-02  1.3558135368479234e-02  1.3765185175225873e-02  1.2951770820583299e-02  3.0809424364089771e-02  2.9535377888369182e-02  2.9022672299014757e-02  1.2176151469423739e-02  1.2339823581896047e-02  1.3532607774527600e-02  2.9815605691130908e-02  1.7078924948136679e-02  2.2472102326181263e-02  2.1719697789279659e-02  2.0731296484113929e-02  1.5370654752013997e-02  1.7790897917499680e-02  2.2316203784667143e-02  1.5690301665909678e-02  1.5423331782838093e-02  1.1871579838138363e-02  1.1765376119145524e-02  1.1811164415852466e-02  2.6244987590722753e-02  1.6104364336480707e-02  1.6093529450688423e-02  1.8636568418364127e-02  1.3451873342871718e-02  1.8593747390806499e-02  1.6129022295069718e-02  2.4301267287968546e-02  1.7867879115105786e-02  1.7131985986428511e-02  1.3499118238870450e-02  2.4095209235997280e-02  1.3060195523531271e-02  1.4293021532197667e-02  2.2230577706851589e-02  1.1760781817659495e-02  2.5707073360892251e-02  2.1090776098732444e-02  1.4306043390644308e-02  1.4844321910967082e-02  1.4962114406463769e-02  1.1940713268774106e-02  1.9648140340213293e-02  2.0678518860858218e-02  1.1504770208351750e-02  1.2846363458024155e-02  2.3078929082999682e-02  1.7751468236990732e-02  1.7626488532853975e-02  1.4332828318915166e-02  1.6499089063733447e-02  1.1514511872815113e-02  1.4816947340803941e-02  1.9651529582739177e-02  1.2124204394387926e-02  2.0787384596088587e-02  2.5243192596547472e-02  2.7359176972870009e-02  2.6774417411369114e-02  1.7643673327772676e-02  1.8140797694212320e-02  2.1927717844882514e-02  1.1503520225669200e-02  1.1507697038817820e-02  1.1890138817701366e-02  1.2357602226679358e-02  1.1346114812747141e-02  1.5039043031129420e-02  1.3789847477133126e-02  1.9794217153981275e-02  1.1959154352084339e-02  1.8652142621329512e-02  1.4545990297948884e-02  1.4738986818123807e-02  1.5853483577680336e-02  2.0123409482023857e-02  1.9450703098879606e-02  2.7856219353041337e-02  1.3569399383989282e-02  1.8177250110688471e-02  2.2456738512285714e-02  2.1375282115074917e-02  1.1900851640701137e-02  2.3975882428256424e-02  2.3837789151101484e-02  2.4810286363384237e-02  2.3209665644214963e-02  1.5090178749243958e-02  2.0653676065102631e-02  1.7068075931292656e-02  1.8778015654634501e-02  1.5519334598452984e-02  1.4351074645172083e-02  1.2631652479355793e-02  1.8980583741279169e-02  2.0870052216395912e-02  2.6127362440433132e-02  1.3448124835567305e-02  2.3999966464472364e-02  2.3988470083830239e-02  1.3553125999444972e-02  1.9363575336351170e-02  1.7795677856016424e-02  1.2526674121739932e-02  2.0276852331921561e-02  2.7249422150650928e-02  2.3416996371130941e-02  1.5233465411778748e-02  1.3896208294464335e-02  1.9340324244208552e-02  1.4034768575405837e-02  1.2241833664000345e-02  1.8885465478844718e-02  2.4735446193057304e-02  1.1465373376228015e-02  2.1425207163377178e-02  2.1062410635678978e-02  2.1606242338546210e-02  1.3344617028443091e-02  1.7554261826355964e-02  1.8908896178048917e-02  1.6559011652835152e-02  2.6324870535136255e-02  2.2554123670291963e-02  1.1217101887137673e-02  2.1340374459362179e-02  1.5720800435565094e-02  1.5845767688089256e-02  1.3379611348379146e-02  2.0385735819863495e-02  2.1518873234964736e-02  1.6369476611482921e-02  1.6775823781253470e-02  1.5733916565085684e-02  1.5039725531574974e-02  2.5355695067744367e-02  1.9555277036979478e-02  1.1898072888359494e-02  1.2894795891068784e-02  1.4577524220937022e-02  2.0829526732890773e-02  1.5251258160033880e-02  1.9710116260948599e-02  1.4758450592207045e-02  2.5053862263121066e-02  1.2691526724865320e-02  1.7384675271825498e-02  2.2477822778879823e-02  1.6333575097710520e-02  1.1836817065885312e-02  2.4274668374353273e-02  1.7705430859312237e-02  1.9684141236569308e-02  2.3225982530567117e-02  1.2745928576241026e-02  1.7845071770687591e-02  2.2600507080706139e-02  1.3351323586260138e-02  1.2112385640345736e-02  1.2974267652683186e-02  1.1267462149427414e-02  2.2893636093629148e-02  2.5357672138577113e-02  2.0611190903152325e-02  2.4936445579657903e-02  1.7313927526202203e-02  1.8257057606122232e-02  2.1104963271545350e-02  1.4009306184737535e-02  1.4248097212965143e-02  2.0335310837400072e-02  1.3113759980753191e-02  2.3576656525085411e-02  1.8297209064180000e-02  2.5971679686598158e-02  1.5373566760910430e-02  2.4741253619440802e-02  2.3816066520918062e-02  2.1607939394793042e-02  2.0187947340695674e-02  2.0194961722507145e-02  1.6988394775751675e-02  1.6308400504875233e-02  1.8450380091590810e-02  2.7332508884001284e-02  1.1356181427551810e-02  1.3046817733902302e-02  1.2965912304781748e-02  1.3040055984672578e-02  2.1724807824616766e-02  1.1276574257860949e-02  2.4887779139199238e-02  2.2228371273642578e-02  2.1598769645804705e-02  1.4121340524285812e-02  1.9240514745708287e-02  1.9171607036041982e-02  1.4090715761611805e-02  1.8752574990108396e-02  1.0841123997280164e-02  1.2245175103449952e-02  1.5589596304192523e-02  1.3955921035557487e-02  1.5991405350557576e-02  1.3885590084844851e-02  1.4987305402200984e-02  1.8008407323832291e-02  2.1239525319542936e-02  2.7890778724354449e-02  1.0878809751798961e-02  1.1560414952180154e-02  1.1954864064354637e-02  2.3387225847656970e-02  1.6558794157750457e-02  1.6918897669592481e-02  1.6439910072615308e-02  1.2118286627927823e-02  2.2985140892200624e-02  1.4417326021552795e-02  2.3048207582200820e-02  2.2903130719703162e-02  1.5057556270522921e-02  1.6862867558074569e-02  1.5368327282322833e-02  1.1840953306920544e-02  1.1884011938552591e-02  2.1981471296031323e-02  2.4382779264777697e-02  2.0338455020147684e-02  1.2451808370579000e-02  1.3579220831992285e-02  1.6170263570087964e-02  1.6814583614450235e-02  1.6308452709966566e-02  1.5637165503455942e-02  1.4966242398093393e-02  1.3777329010979543e-02  1.4023312967370166e-02  2.1157346365862684e-02  1.0868560396498143e-02  1.4186575428942744e-02  1.4355149578796272e-02  1.5171404536753906e-02  1.1505055967009311e-02  1.2458181168685255e-02  1.1598929864727959e-02  1.0869475809201336e-02  1.4067652950584500e-02  1.3975501534405702e-02  2.2503299834301608e-02  2.2377186011241734e-02  1.7746717622219292e-02  1.3240261206319527e-02  1.1924561633843643e-02  1.7391573326525186e-02  1.1494143932163890e-02  1.2692302213630683e-02  2.0105216306702915e-02  1.9562170484033137e-02  1.2399541098850561e-02  1.3693343162497861e-02  1.7362629833526082e-02  2.3583005854564319e-02  1.5247247362768853e-02  1.2906726143796518e-02  1.2860284583627590e-02  2.8801510884515009e-02  2.8842058366316956e-02  2.7790819541649813e-02  1.6424137283950858e-02  1.1489205687105075e-02  1.6811775107444211e-02  2.4445705540054104e-02  1.1509443370920139e-02  1.2834372111537744e-02  1.8756982979514340e-02  1.7274671745569823e-02  1.4223260891204750e-02  1.1473236657468225e-02  1.8782596388099843e-02  1.2863986555822443e-02  1.1548055522384392e-02  2.4702607873640908e-02  1.9215249888077549e-02  1.7707789826736743e-02  1.2811654572094117e-02  1.1479655312200318e-02  1.7121079068748737e-02  1.6162949154644758e-02  2.6377447197879465e-02  1.8293328898998647e-02  1.0902121622923646e-02  2.0615169477427361e-02  2.3359973706629962e-02  2.0414952757329297e-02  1.7295533371423463e-02  2.1102741947960017e-02  2.0745950380920287e-02  2.2234469579220421e-02  1.2842934409179871e-02  1.5878236515207228e-02  2.8493493630227910e-02  2.0450716248793004e-02  2.5556652405252057e-02  2.5969292281099867e-02  2.5473302050610540e-02  2.6674771015288732e-02  2.6703809698695881e-02  1.1497349799588523e-02  1.0849459752396554e-02  1.9972074139365015e-02  1.9568185534856203e-02  2.0094434185323664e-02  1.9818303897818749e-02  2.9314096900418314e-02  1.6582723276209323e-02  1.2359598392913942e-02  2.2818056915923861e-02  1.3327569876522626e-02  1.2874317293842769e-02  1.2619188833662455e-02  1.5522277089333254e-02  1.3435096478206444e-02  2.2256394476926355e-02  1.4411244042494888e-02  1.9219202212229003e-02  1.3074422222255275e-02  1.2573401587501221e-02  3.0381684657421339e-02  3.0122086781383603e-02  1.4183650978968414e-02  2.0286189450065936e-02  1.2322850307743292e-02  2.9558561225957763e-02  1.4507301499453106e-02  1.1428243962658962e-02  2.5319333607482893e-02  2.5451555691583732e-02  1.7373760672615667e-02  1.4486566235753409e-02  1.8350584921532541e-02  2.2356923463952492e-02  1.1254306557673640e-02  2.8413212997346962e-02  1.3161859417522731e-02  1.4628872258599273e-02  2.3058340013713607e-02  1.3740982538076353e-02  2.6958886480032383e-02  1.7781122134817331e-02  1.4081258643324795e-02  1.4897981093200559e-02  1.6464160204919486e-02  1.4573817381642566e-02  1.7117635008131897e-02  1.8222112424827970e-02  2.1522179844091216e-02  1.6819221957263840e-02  1.5240516312294172e-02  1.2133503868975000e-02  1.1457332053219678e-02  1.4338452535041296e-02  2.1303936755365162e-02  1.1895234703815075e-02  1.1477379005658898e-02  2.1562039755864810e-02  1.1356976451135486e-02  1.1310715094881270e-02  1.1346283687088426e-02  1.2161179995304449e-02  1.1571452792309712e-02  1.1347118498485870e-02  1.8131400319786023e-02  1.1377948195640043e-02  1.0880690195584840e-02  1.6517881835767721e-02  1.7755818094945058e-02  1.0862663045039644e-02  1.0875522298221934e-02  1.0876880114939532e-02  2.3189791945600363e-02  2.1934499347123357e-02  2.0674604660963106e-02  1.1282725453351346e-02  2.5710755128728998e-02  2.4095850423451054e-02  1.5261971287029568e-02  1.5583986879492771e-02  1.1592931803570737e-02  2.9153458199502495e-02  1.3442872391768702e-02  1.0890574983926387e-02  2.6627116531893646e-02  1.9016486895164452e-02  2.9420519188695649e-02  2.8212957093142376e-02  1.1242736934273150e-02  1.0897447617756953e-02  1.0833729503304716e-02  1.1047059500143324e-02  1.9403428156774323e-02  1.1282234699854021e-02  2.6965938895949358e-02  1.0897093783435877e-02  1.0930348804489566e-02  1.0882885326465719e-02  1.5697040448797991e-02  1.3672614982452109e-02  1.8254788923865940e-02  1.1901521961225726e-02  1.9130250362309382e-02  1.2029736391823344e-02  2.6103872751920412e-02  2.6354394273444350e-02  2.7261709530390220e-02  1.2884803302716741e-02  2.7574989070992234e-02  2.4347527626997604e-02  2.6632123635463661e-02  1.5126325399432776e-02  2.1188328385261260e-02  2.2355713075709552e-02  1.4526551002520023e-02  1.9419487441561193e-02  1.8832176691350348e-02  1.8266292009186939e-02  2.0671259914303006e-02  2.5823704880372361e-02  2.6985305503317125e-02  1.2774085258224394e-02  1.6368261166850490e-02  1.5726478649076885e-02  1.3470773980292951e-02  2.5513080464643532e-02  1.1542541281002159e-02  1.9012182491612205e-02  1.4888909709460645e-02  2.2195923545317395e-02  2.3704916664614564e-02  1.9488658398223654e-02  1.5320113878906971e-02  1.9321628048041269e-02  2.2888353452374298e-02  2.2362201702687528e-02  1.5524524170772406e-02  1.2467641955322883e-02  2.4042557151053599e-02  1.3601961840888823e-02  1.3128706108211968e-02  1.9527342911367169e-02  1.7409084900830332e-02  2.4048824148318274e-02  1.6995310821430062e-02  2.5689890295185806e-02  1.2868137316022255e-02  1.7803900753571685e-02  1.7459739451891342e-02  1.4206710945639151e-02  1.5454407785068311e-02  1.5201597573821203e-02  1.4370781581305451e-02  1.4473904547694216e-02  1.4026842337347864e-02  2.0064412184709314e-02  1.4854362450074834e-02  1.6966553662980013e-02  2.0504571576857575e-02  1.6281112978659223e-02  1.5938678595399589e-02  1.2405472539154696e-02  1.9012485379456837e-02  1.6297960300453426e-02  1.5957602071656331e-02  1.4647649608220157e-02  1.5326359659071613e-02  1.8560223535615775e-02  1.8300346645555174e-02  1.7439153079159626e-02  2.1839410240850055e-02  1.3514938652401316e-02  1.3176857812576076e-02  1.3075903320332979e-02  1.3545749128426841e-02  1.3939133396116915e-02  1.3182285973837658e-02  1.2812549878892599e-02  1.8301125957511148e-02  1.9257126073066160e-02  1.2928017042547018e-02  1.1629314801373606e-02  1.3389090384473215e-02  1.7499027784593609e-02  1.9808347927662364e-02  2.1647828349634933e-02  1.7999385593942437e-02  1.4833621916374917e-02  2.4330951672814776e-02  2.0268360828535104e-02  1.2573642931835716e-02  2.4869003529553079e-02  1.5716918489317631e-02  1.4189133867610457e-02  1.3797792118726169e-02  1.1542899123606376e-02  1.3954318129625587e-02  1.1999662885205596e-02  1.9744805692731637e-02  1.8461849583421952e-02  1.9818104466644636e-02  2.0929483594876015e-02  1.5444378251559520e-02  1.5228618204567362e-02  1.6608094721887998e-02  1.2362650036506649e-02  2.1423143891229061e-02  1.8347475690094373e-02  1.9781206331836988e-02  2.0346145501525754e-02  1.3053522153253347e-02  1.1790734081838221e-02  1.5194193495657588e-02  1.1799218341875247e-02  1.5107834720500587e-02  1.2427316628013253e-02  1.2544754006002494e-02  1.4369178458151661e-02  1.8360594133866363e-02  1.2358755804965387e-02  1.4203581905023200e-02  1.5363302475282817e-02  1.2870556019198273e-02  1.3488823309017220e-02  1.3988447229619136e-02  1.2696186762331795e-02  2.07619270686