<?xml version="1.0"?>
<VTKFile type="UnstructuredGrid"  version="0.1"  >
<UnstructuredGrid>
<Piece  NumberOfPoints="6486" NumberOfCells="12696">
<Points>
<DataArray  type="Float64"  NumberOfComponents="3"  format="ascii">0 2.5 0  0 0 0  2.5 0 0  2.5 2.5 0  1.25 0 0  2.5 1.25 0  1.25 2.5 0  0 1.25 0  1.25 1.25 0  0 0.625 0  0.625 0 0  0.625 2.5 0  0 1.875 0  2.5 0.625 0  1.875 0 0  2.5 1.875 0  1.875 2.5 0  1.770833333333333 0.7291666666666666 0  0.7291666666666666 1.770833333333333 0  0.9375 0.625 0  1.875 1.5625 0  0.642361111111111 1.163194444444444 0  1.341594827586207 1.883979885057471 0  0.46875 0.46875 0  2.03125 2.03125 0  0.3626104797979798 1.513178661616162 0  1.381740196078431 0.4564950980392157 0  0.9375 2.172619047619047 0  2.172619047619047 0.9375 0  2.096354166666667 0.4036458333333332 0  0.4036458333333333 2.096354166666667 0  1.684027777777778 1.163194444444444 0  0.3418803418803419 0.8693910256410255 0  1.642742622813391 2.162164207604464 0  1.275619849389031 0.8465650753054845 0  0.9136284722222221 1.434461805555556 0  1.732437511238546 0.3406962303960658 0  0.9714402568595876 1.029779313093998 0  1.52281746031746 1.485615079365079 0  2.1875 1.71875 0  1.06819722569879 0.2997236128493951 0  2.136114211309524 1.303478422619048 0  0.3125 0 0  0 0.3125 0  2.5 2.1875 0  2.1875 2.5 0  0.3200021620376328 1.192323085056694 0  0.6738456129277992 0.8304377375553881 0  1.757891808928991 1.861952730357003 0  1.5625 0 0  0.9375 0 0  0.3125 2.5 0  2.1875 0 0  2.5 0.9375 0  0 0.9375 0  0 1.5625 0  0.9375 2.5 0  2.5 0.3125 0  0 2.1875 0  1.5625 2.5 0  2.5 1.5625 0  0.7448220909826522 0.3003573636608841 0  1.027298850574712 1.871151477832512 0  1.331260495098891 2.197262878816185 0  1.207917681892289 1.582765010956622 0  0.4339993447432606 1.801186844743261 0  0.6337298768939392 1.443093039772727 0  2.049851190476191 0.6826636904761904 0  0.6584821428571428 2.219122023809524 0  1.89575676467455 0.9798457973793544 0  1.437570562095628 1.059380588255917 0  1.502090052505845 0.6987070896496241 0  0.2040860661083546 1.705323965099331 0  0.2083333333333333 0.46875 0  0.5070952039991439 0.2211150679997147 0  0.6916302856529919 0.5813591430410241 0  2.265625 1.953125 0  2.2265625 2.2265625 0  1.886424081252096 2.243391360417365 0  1.40625 0.202164758520858 0  0.2269345238095238 0.2269345238095238 0  1.152730869673694 0.5225850378741401 0  1.885631899587912 1.312095130148776 0  1.614808884009367 0.9049784971014416 0  1.890095442220658 0.5126535558463003 0  2.323168682795699 0.46875 0  2.268811725689575 0.2304742875213018 0  0.6002389442105756 1.967426444210576 0  0.1768313172043011 2.03125 0  0.2311882743104251 2.269525712478698 0  2.03125 0.176831317204301 0  2.280262553344767 0.6954945504579233 0  1.979219539285994 1.809922269642997 0  2.336309523809524 1.09375 0  1.09375 2.336309523809524 0  0.9314042474388009 1.662973812215543 0  0.1634067999087722 1.40625 0  2.337090640094896 1.40625 0  1.141616997467638 2.069311773587991 0  0.46875 2.338939559681489 0  1.542440307908715 1.734944797244472 0  1.556713687786879 1.956977865354753 0  0.8264238995344066 1.975424467820646 0  1.466326331454725 1.275271369760862 0  1.655675324257095 0.5444159974393489 0  0.3385416666666666 0.6479255698005697 0  0 0.78125 0  0.5236073939200119 0.984090461540625 0  2.091665741047893 1.519793517904215 0  1.71875 2.5 0  0.5356538886262603 1.623137930505009 0  0 1.09375 0  0.1932884281517095 1.015625 0  0.8569313582417669 1.2198915584249 0  0.8876981284879677 0.8329884081524883 0  1.115618488474214 0.7219586973356271 0  1.186950366204949 1.043465130075318 0  2.057459118787237 1.110823087309335 0  1.830651283878689 2.049810069572418 0  1.689107969301489 1.367247437031697 0  0.4921048768039656 1.298643370653124 0  0.8213975694444444 2.336309523809524 0  2.03125 2.5 0  1.049729400480002 1.283723261332814 0  1.308101375801673 0.6489479469700392 0  2.5 2.34375 0  0.4968777175037714 0.7562964879736076 0  1.40625 2.5 0  1.501347663534097 2.307027627307738 0  1.602813712048603 0.1926218191360736 0  0.8393082906308107 0.463778306132633 0  1.682663349152719 1.598471865581041 0  0.7774174680851571 1.560004941327907 0  1.554204170364662 0.3898593897892066 0  1.842184459051087 0.186443880058197 0  1.358107417651776 1.696381759610015 0  1.18859291992392 1.77598670078022 0  0.1875331222687418 0.7609599743339348 0  1.339536743965101 1.422080365801479 0  0.7788179348750389 0.9955343414928611 0  0.9062978492805438 0.1919636509126373 0  1.256007360640958 0.3160320559396114 0  1.09375 0 0  1.174986727221844 0.1594990293443933 0  2.34375 1.796875 0  2.318026474511116 1.589177949022232 0  2.34375 2.5 0  1.672742954892153 2.332882724550692 0  0.2683637361947215 1.874801596909639 0  2.174770749820102 0.5581009131310781 0  1.443279522965991 0.8870068372898454 0  0.3385416666666667 0.3571428571428572 0  0.78125 0 0  2.060421048269335 2.314363248763811 0  1.088078737088509 0.8967352118723447 0  1.087825368444708 1.454931510884769 0  2.018308232129541 0.8548495425854904 0  1.943987311736842 0.3246298523011434 0  1.71875 0 0  1.85337849796276 1.144833312386208 0  2.3486328125 2.1044921875 0  1.407588788651747 2.042968789119587 0  2.336309523809524 0.865366648092144 0  2.34375 0 0  2.5 0.15625 0  0.15625 2.5 0  0 2.34375 0  0.1638044648294291 1.242263417405867 0  0.356216654757926 1.032569427322806 0  0.3188217956111817 1.355736727000647 0  0.5924956460852111 0.36112522004736 0  0.6594216488965849 0.1603472116132387 0  1.841804599497131 1.72214349266521 0  0.15625 0 0  0 0.15625 0  2.115898634821499 1.894570904464496 0  0.7821877980253907 0.7129993435924866 0  1.003820447087786 0.4516053462784233 0  0.477562948779147 1.138333049293613 0  0.719493678605015 1.305655360135975 0  0.9772457618587566 2.020350128938537 0  0.8764738248887107 1.826219722709673 0  1.254787875123819 2.339010653832026 0  2.343597354852534 1.249982759769001 0  0.78125 2.5 0  0.46875 2.5 0  2.5 1.40625 0  1.09375 2.5 0  2.5 0.78125 0  2.5 1.09375 0  2.03125 0 0  2.5 0.46875 0  1.40625 0 0  0.46875 0 0  0 0.46875 0  0 1.40625 0  0 1.71875 0  0 2.03125 0  2.5 1.71875 0  2.5 2.03125 0  2.005424054645407 1.653223486966518 0  0.1538730573856537 1.559850281736677 0  2.33984375 2.33984375 0  1.166539506212474 1.922878979538754 0  0.3914885633949916 1.65887232812171 0  0.5795503163042564 1.766243562569382 0  0.399533125920212 1.946786875081388 0  0.7866324979014098 2.127719094551316 0  0.3654683023546834 0.1495701132219454 0  0.1527388747131078 0.6116379440619215 0  2.013737577140188 1.391056634712135 0  1.17635437372994 2.213329084238133 0  1.737118141866284 1.010577140843115 0  2.200707118087222 1.164723314085963 0  1.697018908736685 1.993548551451517 0  0.5387621649009668 0.6070503962352419 0  2.032805785855952 0.5330427622570983 0  1.082699501358059 1.667818725183932 0  1.503819781540653 0.5468420196858188 0  2.015409142866072 2.175941657590429 0  1.752057611265444 0.869642097111018 0  0.612251684107783 2.356045720700959 0  1.902817102342857 0.6607642211999982 0  2.159616561739693 0.7867739969338844 0  0.5120038350106624 2.197302352398502 0  1.888200216011548 1.919501662489862 0  1.495909909726654 2.16028358757309 0  0.489139876703609 1.443203008943564 0  0.8819175670410521 0.3301172743913011 0  1.882591144370812 0.8155965192707721 0  1.133979796994841 1.172526771862882 0  2.206217447916667 2.084147135416667 0  2.20361328125 2.36279296875 0  1.395746985657004 1.556054166359645 0  1.704383111516207 1.734750450338683 0  0.9575737847222222 2.36274223823052 0  1.035150984253136 0.1302833343179028 0  1.383966125325753 0.7651479963479179 0  1.64003252158672 0.6824316405528895 0  2.22550785055421 1.487078576356817 0  1.760964431499756 1.48495222505201 0  1.276460980673788 2.004207003584658 0  0.1341477688427096 1.828777507920502 0  1.542261434180652 1.155296658359034 0  1.334627911613854 0.9696897472490321 0  1.30794231473696 1.119420615785191 0  0.7028260459857245 0.4438906910721139 0  1.625757433094055 1.84268057552138 0  0.9818707849053143 1.165603626132254 0  2.0086489901463 1.243134585689553 0  1.934584460420609 2.374094051915812 0  1.798434376789567 2.38671361912528 0  1.206314791201715 1.382064292497919 0  0.6333752893366955 0.7023738550008095 0  0.7796219811205605 1.42573253164258 0  1.564399711917382 1.026040828857629 0  0.3385416666666666 0.4889012896825397 0  0.1041666666666667 0.390625 0  0.989112246382566 1.543537365516289 0  2.025724425454636 0.9846960595520872 0  0.6602885475034063 2.086117390485779 0  1.607130551925032 1.267198646640915 0  0.1317864544877056 0.8896173683400176 0  1.755387840017567 2.230364320056445 0  1.301540702984401 0.1216289692748247 0  1.433170657577442 0.3331052752740999 0  1.500459610550388 0.113513924782439 0  0.6494291520606965 1.029586599619295 0  1.010146149868299 0.794897284196169 0  0.3700844198238017 2.235390157870766 0  0.3360891767780704 2.36656279435396 0  1.876856241037701 1.437150669863757 0  1.778674102957329 1.245979347269706 0  0.5472829890977179 0.1005517127039925 0  0.4669074189005698 0.3416784232954367 0  1.472765289289269 1.850899166481903 0  1.555853593327178 1.608452097912802 0  0.6708955559113426 1.646561631116984 0  0.8164699620322933 0.5924479455478063 0  0.3167738989468366 1.758696809749795 0  0.2788007305565096 1.605499483471246 0  0.7821720982350511 0.181524936294752 0  1.376812251214195 2.313340247908297 0  1.785652202614777 0.5962261755537186 0  1.761467296310972 0.4679567244718574 0  2.2265625 1.8359375 0  2.3828125 1.9140625 0  0.5279531607054191 2.071552361614785 0  2.397573269551114 0.234375 0  2.383578172599618 0.3589298466020009 0  0.1024267304488855 2.265625 0  0.1164218274003825 2.141070153397999 0  0.2696857594953064 2.135405441512016 0  2.164961300137334 0.1375322943529536 0  2.137757548369486 0.2724194778647587 0  2.238873711826398 0.3626419179496562 0  0.1001414910226386 0.234375 0  0.2176339285714286 0.3478422619047619 0  0.2503620791333544 0.1061694061057066 0  2.336445461915368 0.1250451055247424 0  0.2154004640409726 2.3918124
[...]
<PointData  Scalars="f_124-1"> 
<DataArray  type="Float64"  Name="f_124-1"  format="ascii">5.3612635752169484e-05  1.9117399358178670e-03  1.0574884373223231e-07  1.3074860661036652e-07  7.0587858796484593e-04  9.5726968735266659e-07  5.1083693290145560e-05  5.0526967123562909e-02  2.2025424829859884e-02  6.3839478489193580e-02  1.9159008515375003e-03  6.3447559378229058e-05  6.8253968559628562e-03  5.0643348208423002e-08  3.1725136325226836e-05  2.3025846886946828e-06  9.9241785351718947e-06  1.1027499573003847e-04  1.1917962377745943e-02  9.3260982631158916e-03  1.1433057214312813e-03  5.2885178835559501e-02  4.5419850153448080e-03  3.5119365102264495e-02  1.0416076257862540e-04  3.1018199161730330e-02  5.4454908196791582e-04  9.7707389550075467e-04  7.0361944643681255e-06  4.1843073455550859e-06  1.7573791651504822e-03  2.2260942011473263e-03  6.2349544418147350e-02  3.7060621180948672e-04  5.8557082726581498e-03  3.4143691653498530e-02  7.6328672250171984e-05  3.4721704167235287e-02  8.3739561396542136e-03  7.1937176177195106e-05  1.1809592707023421e-03  8.2473509335572967e-05  2.2831541850678685e-03  4.0459246572513943e-02  8.7634023788146466e-07  1.3944259979960289e-06  5.2625203831279062e-02  4.7523293632219264e-02  1.1489139481000517e-03  2.0236296145584895e-04  1.3542958935646825e-03  5.0080329845019423e-05  2.1891963041788301e-06  1.2174001695031695e-07  6.0875871258419471e-02  2.7442377850210781e-02  5.3744593086335515e-05  6.3131368891989972e-08  8.2789264120590651e-04  2.9209703942845364e-05  2.7446227179465683e-06  2.6655377448681701e-03  6.5190382760272857e-03  5.7908654741728157e-04  1.7618589203585784e-02  1.1053680676036058e-02  3.5503674024921092e-02  7.9934975513309137e-06  6.6853065598131665e-04  1.6277018611357750e-04  6.6568620888387432e-03  6.5034652014008595e-04  1.6808867113715750e-02  6.1325435931156330e-02  4.7790532896531280e-03  2.2662398131016750e-02  1.9120169065349587e-05  7.4911443941648623e-06  6.4711699858090938e-05  4.2167468808503792e-04  2.5906203594714874e-02  1.5983266489160435e-03  7.8296228112793940e-04  1.0762277817736828e-03  2.6116210384020174e-05  3.5350107756618162e-07  7.7696950917219382e-07  4.3461241877973981e-03  2.6420582024893422e-03  4.0745255277185790e-04  8.1761268339696534e-06  7.0257090116660149e-07  3.4348775835171531e-04  2.6598395254598508e-06  2.2775095745873727e-04  1.7269153801398627e-02  4.0155014608766214e-02  1.2062615337285218e-05  1.8481508452364162e-03  2.4483874892193650e-04  4.7918020012201641e-03  1.7201149819920107e-03  4.0555245803232916e-03  9.9633380232868017e-03  1.5550498777230578e-04  6.1270404887231601e-02  6.2887620670961694e-02  5.8996406789058230e-02  1.8225032999221873e-04  1.9608850029942348e-05  2.1691021172552023e-02  5.7041541596310322e-02  5.9125886838514927e-02  4.5368541045336615e-02  2.7906581486942753e-02  6.5002504260401415e-03  1.9228666294648117e-02  7.3542533911961200e-05  3.0246082277042010e-04  3.4555268308360141e-03  4.6050910424230714e-02  2.4477644897126380e-04  4.2918547805626935e-06  3.3540687046082526e-02  1.4575493333095601e-03  3.6569484057237290e-07  5.6997134760447696e-02  4.0198876563326851e-05  1.7466932411729641e-04  1.6560438921544874e-04  5.2799609173759610e-03  3.4237349478932568e-03  2.5115358839643945e-02  2.3745493042910115e-04  3.4073530478724252e-05  9.6659627299182753e-03  9.3103171857353752e-03  6.3537142553928269e-02  1.6836686741188787e-02  4.7818445753802896e-02  1.4514918535784994e-03  7.4653345625189929e-04  1.0298954565925503e-03  9.0679974797819589e-04  1.3087175214973285e-05  1.9980019822575481e-05  4.3726848918398765e-07  8.9053832203694075e-05  7.5356151275507016e-03  1.8272117145397190e-06  2.8622053655773467e-03  3.9117110096402799e-02  1.6311993098532000e-03  1.3360312632632460e-05  1.7323658530507845e-02  2.7305879103265467e-02  2.2298679241263240e-05  1.6111647384904523e-05  8.9707354708035662e-05  5.6618803805302700e-04  4.9568804936786354e-06  1.5117769256260468e-03  5.8611902577071016e-07  5.0998786395740039e-07  8.7268952272960599e-08  5.2583888544943434e-05  1.8772881879325958e-04  5.0306846804619706e-02  5.9175753459517082e-02  4.3002638624347500e-02  9.6557179107932545e-03  2.0157807430930177e-03  1.0667900119724833e-03  1.7622075062237480e-03  1.5029185699632963e-02  8.8328389786925486e-05  2.6501696884804988e-02  2.2247138123259727e-03  5.5394875895323555e-02  4.4840607825128012e-02  2.9243696071404525e-03  8.8896345798253687e-03  2.0610825077648379e-04  5.8036287788483389e-06  5.6403430425205998e-05  5.2813759265457226e-05  1.9139474019086426e-06  5.2927337945121028e-05  6.6563573875221435e-08  3.5710153772513776e-07  9.5509736605817323e-06  5.0407113793765589e-08  3.9073353552368577e-04  2.2021327168606133e-03  6.1669422490625250e-02  4.0528157070487819e-02  1.5642710196004422e-02  2.8013978714081030e-03  2.9227478483360213e-06  1.5041932012421122e-06  3.7762051503794855e-04  2.7548361968483988e-02  1.4036157821285121e-06  4.5447939929331421e-03  2.0481188959442037e-02  1.2307900240026063e-02  5.0163391716392417e-03  1.4226220377016128e-03  5.6631027678689686e-03  6.4754383053841860e-02  3.2374348287740856e-04  6.5615805801991841e-04  7.6072831729919203e-04  1.9363980031567246e-05  8.4997817846687077e-04  4.2521588325878774e-02  7.9682887507752186e-06  1.5839895304744528e-02  3.5262808469624314e-04  4.6837520300558611e-05  2.8544023258455261e-04  2.0184911662873541e-04  2.9805275912561116e-05  3.5141868459797619e-06  8.3338347869995613e-04  4.2866749704889286e-04  5.5699086979777975e-04  3.5849095599677083e-02  1.9641298936344002e-03  5.9436130310271062e-05  2.8138624562920565e-02  1.9130012476936505e-05  3.1051737018480063e-06  1.1893738273526806e-02  2.2347969305465277e-03  1.7733263161686676e-04  1.1916321580744944e-03  1.9768808176321749e-03  2.3145305571977502e-04  5.1087600694036532e-05  2.4901612059618013e-03  2.5245071724562585e-03  9.7210333043368444e-03  5.1575978830010003e-03  7.6673475566120261e-03  1.4483291295586224e-02  9.9640767430549566e-03  2.3571455058239324e-03  3.8358995261065718e-02  2.3586073604068373e-04  1.8961080792538218e-05  3.3203455874191451e-05  2.4287083167876793e-02  4.1592079713516472e-02  3.5977846936811664e-02  2.8438943871383201e-03  5.3433534896628783e-02  5.1472300711642334e-02  2.5028029753214512e-02  4.4809524212568404e-05  1.8744620468740796e-03  4.8420255039065769e-03  6.1808319121604227e-02  1.4755008671901796e-04  6.1145125411306918e-04  4.0568285588185149e-04  2.7235467378062167e-04  5.5304762986413257e-02  1.5721357503309909e-02  6.0374362237512746e-04  1.6719883672048835e-04  1.0430693297127447e-03  1.5079432062005131e-03  2.1616114047198318e-03  1.8239382100993257e-02  3.8513801905766289e-03  5.9974134667412620e-03  1.9168688742802524e-02  1.4282375123410176e-02  1.3521772484062215e-02  2.4391001577139668e-02  1.7324192239439847e-03  2.0658074307895440e-04  6.8984976249679311e-05  6.8406335891513709e-05  4.1731947414146867e-05  6.5394208325034533e-06  2.1939684063486068e-03  1.7838078759614362e-07  1.9894383503618098e-07  4.4113296669497841e-04  1.2865723923983796e-03  1.3271107261624083e-03  2.4683565684517717e-06  2.9713799803102947e-06  1.0670020198995574e-06  2.6499617302072492e-02  4.5696118240570779e-02  6.6420088965208754e-03  4.2333109484860998e-07  1.3096675638894488e-04  6.4997133849013875e-04  1.0059492327720167e-02  8.3905012766557577e-05  4.2629087111745309e-03  1.0558928561694000e-03  9.4908823958155539e-04  3.7775022723588003e-03  4.7831986705558788e-03  5.0368973763556306e-02  4.8166073989358493e-03  1.9002384101834884e-05  2.1592399025158632e-07  2.2221299908461735e-07  1.8818401939590301e-06  2.2168493622947857e-02  6.2473699043831352e-03  6.7498416696611585e-03  9.9655082019902384e-04  8.3421147586567736e-05  7.8656285784107043e-03  3.6139290296116831e-05  6.0482512390434513e-02  1.6525426462967160e-02  1.0941101597563802e-02  2.3717352556151888e-06  1.5167590507454544e-03  8.3030565516746997e-06  1.1307271821304520e-03  5.4995708505240049e-02  6.3037125164594779e-07  6.3672702060284650e-02  4.7564206440307982e-02  1.8796292892397744e-04  2.0955907544334577e-04  1.2004569078672375e-05  1.0247968077630221e-04  3.5795421382135824e-02  4.6003885496964859e-02  5.1475966603077438e-06  2.5124131881516665e-05  4.4399376522825010e-02  1.3570766590125782e-04  3.7018077023316101e-04  1.2407243405072218e-04  5.2032003942999972e-05  6.6722998731646110e-06  8.0992371359294595e-04  1.0463496267168944e-02  1.3020893388398413e-04  3.9660025479456018e-02  6.3298619711076448e-02  5.1685082511701556e-02  6.2466691628830756e-02  1.3678768655441792e-04  2.1511354482063368e-02  5.3825424555914346e-02  3.2232904699825021e-06  1.4297075746441730e-06  8.3430513811032491e-05  1.1909354320551607e-04  3.7867945588776584e-07  5.0583526589128842e-04  1.1191084358843238e-04  6.4648054455087808e-04  4.1364256993639439e-06  2.5355513639077881e-04  3.8440309228258751e-04  2.1302399376293968e-03  5.2332853747442945e-03  1.6672335875358161e-02  3.4821468808533040e-02  1.5210046379793661e-02  2.3414004230368564e-05  7.9172078456452924e-03  3.0819070477195863e-02  1.2554251401867986e-02  6.2009325121463858e-05  5.5568181130741655e-02  1.8919806433214146e-02  3.6428257662647345e-02  2.7075387566849084e-02  2.1027561365635787e-05  4.1642883389271079e-02  1.0165411237875061e-02  2.1303085331262853e-02  3.7301769025773132e-03  1.4357468570094438e-03  2.1759338769981104e-06  2.6987041367801983e-02  8.0659379338426961e-04  3.6635500945913549e-03  6.1249319822079490e-04  6.1728514726920855e-02  3.7956049156791759e-02  4.0481261370927859e-05  1.1926698482177782e-02  1.4036185421154742e-04  2.4216647118600039e-05  3.3526109406207351e-02  6.5275979651757451e-02  5.9779415063836598e-02  1.5688503642226321e-04  2.3206088206517731e-05  1.6647953158163812e-02  7.1757851518224731e-05  7.6421195759575602e-05  2.6395660085563519e-02  5.6221865845045384e-02  2.1257310452516526e-07  2.4713245663612231e-03  3.9660690805002445e-03  8.7125117726251835e-03  1.5690942176980632e-06  1.6279221746117796e-02  2.7603691271154397e-02  1.6795786304342121e-03  5.5052481720588423e-02  5.6389705300114015e-02  5.7046427545532075e-05  2.7660655946670484e-02  2.7313995126484847e-03  6.7321422663895944e-04  2.6349412870364125e-04  4.1309921855714984e-02  5.0717123389918864e-02  7.9974221623429712e-03  1.9249190761979694e-03  6.3733142769114908e-04  2.2219697648503581e-04  1.7599485954317377e-03  2.2277527374170703e-02  1.0497427576526494e-04  3.4130554107030377e-04  7.4384480046967734e-06  7.1093117867330644e-04  3.3369219325209403e-03  4.2051696660214301e-04  1.0859526727596794e-03  1.7220029215399301e-03  6.9472978596711653e-07  1.4975399131421286e-02  2.5118634543402924e-02  4.3479992634362214e-05  1.0742749013575448e-06  4.9340087344134989e-02  3.8783089277727527e-03  9.5657887110478968e-04  1.3996102838094212e-03  1.0962047215619791e-06  1.3693613697166655e-02  5.6917382362020548e-02  3.6268553462736729e-04  6.8702446743791658e-06  2.0553351983673739e-06  5.0398467022402970e-05  9.7170223584357607e-03  6.0831977076095937e-02  2.9090968038318621e-02  6.2864146754901692e-02  6.2290668240385398e-03  2.6818847161326492e-04  4.8328061576961859e-02  4.5483141455291026e-06  6.0609291405096547e-06  4.1399211806909177e-02  4.0759789924080356e-04  6.0623234229388777e-02  2.2482428473578444e-04  6.4102026028049097e-02  1.6348953520597217e-05  4.2081941424758117e-03  6.8013852082222017e-03  9.3773573340876317e-04  5.8187955490896469e-04  5.5592353245894038e-04  7.8127616842130661e-03  5.6998243115054430e-03  1.3544268618291992e-02  2.9815407964306146e-03  5.0088692058809496e-05  2.9778094738381414e-05  8.6210262833445712e-06  3.9303502162788207e-04  5.2130973172400681e-02  2.4364825732584968e-05  1.1726749441870530e-02  1.0912224789920411e-03  4.9620020642930709e-02  1.3155146445488664e-03  2.9751390929650380e-02  3.6449453647883524e-04  1.7127444623580098e-04  2.3359764365482121e-03  8.3191387196146408e-08  1.6611108476777752e-05  4.7553803311384143e-04  1.4355226506189439e-04  6.1333144353844056e-03  4.4811504843682810e-05  1.2978982442616707e-05  2.8427923229915187e-03  2.1105490405857366e-02  2.2822332111178188e-03  4.6736007174586952e-08  1.2880971192450413e-07  1.0987034753355142e-04  1.3477169466665159e-03  9.1688718654961768e-03  1.1444140281018178e-02  2.9255238096215252e-04  9.2095658795155054e-06  1.5494629595772481e-03  1.1296133385532391e-03  4.0981889000772801e-03  5.8657525151729742e-02  2.0020555298424516e-04  1.0637407717954654e-02  3.9057730393216943e-03  1.0267167041392687e-04  1.2229650001806180e-04  1.0215102607294628e-03  1.7966185208768608e-03  1.6198606388447993e-02  6.9330590918555394e-07  7.6500727780309753e-04  6.6848739553620170e-03  1.0058088209478828e-03  4.2943638887437292e-04  8.3702972462286463e-04  2.7797023242580195e-03  9.9308498239951621e-05  4.1816629835300243e-06  7.8200761124399849e-04  5.8107858044667211e-08  1.6336472386652179e-05  9.2566511341057154e-06  5.9396170246645278e-05  5.1584536341998989e-06  1.6516437042836670e-05  6.6652900995235207e-06  1.0028155424354756e-07  1.0719346462224595e-03  3.4506048502608756e-06  5.6375790311046295e-02  5.6252873270590226e-02  1.3713123312854006e-03  1.8735262601304672e-04  3.6863570361778887e-05  2.8025851620621894e-03  1.9983997292040756e-06  7.9808659041951260e-06  4.6917207287553771e-03  4.8267608622190334e-03  4.6090017699349485e-07  8.4392365903110844e-04  1.2823594738582697e-02  2.4510430593404717e-03  4.9824881433241006e-04  3.1976176661815698e-04  1.0532269824879801e-06  3.5642349458261939e-02  5.3604766801257746e-02  3.5115355033509897e-02  6.6785039406446001e-03  1.7370190822190790e-07  2.3620269922687829e-03  6.1991275127065322e-02  1.3123999744619913e-07  2.4614254714722957e-04  2.6402912194988068e-04  1.2604339595030114e-04  8.3900643403946582e-04  8.1032511488331427e-07  8.5987455981355876e-03  6.7284522512147619e-05  2.9922295652770987e-06  6.2990403404961565e-02  2.9307288749003277e-02  1.1137102944016691e-02  1.5315530305175933e-05  2.3736592752745690e-07  1.1382715071209654e-02  1.3985168093651659e-03  2.5105435261555619e-03  4.8064810809556713e-04  1.9040470212685862e-06  2.0847353059879843e-02  6.0132410899675928e-02  4.1742654138250158e-02  3.1516999816588892e-03  4.7650413156948360e-02  1.3055970441530333e-02  1.5862044108581538e-03  3.3384862981944000e-05  1.1443352624580706e-04  1.7860502438241662e-02  4.3153426118267800e-02  5.6983191801214163e-03  1.9514410946525158e-03  2.4203371501297579e-03  2.0910099667450454e-02  7.9624235710774073e-03  8.3134345595852151e-07  2.0299717260681413e-07  2.0054091147231029e-02  2.9362095945497584e-02  9.5532506058806470e-03  3.7141978827190954e-02  4.0347817437111626e-02  1.3818994909382124e-03  6.0049716070987421e-06  1.2089396173528336e-03  4.2114548467972133e-05  8.3590915056457855e-07  1.1051521032885659e-05  2.8131692446259470e-03  2.1740651237855606e-05  1.2283333208641455e-02  1.7132769137337579e-04  1.3075793485322813e-03  3.3118498002713414e-04  2.1330705068590004e-04  1.8780645336175924e-03  2.8179359806681085e-03  8.8918914513594509e-05  5.3296510271880898e-04  3.0930790907121661e-06  1.9585235575993728e-02  1.4634722097428444e-03  9.8903804564806837e-08  2.8883052683451951e-02  3.7875875964074830e-02  6.7194610986703591e-04  2.8235025507682615e-04  2.0973592864229364e-02  1.2992699804905666e-03  7.1828524461394639e-06  3.0183583676113316e-03  1.6044241230528235e-06  7.4036963391976173e-06  1.2807621209064866e-03  2.9418047646333353e-05  5.8544543078479984e-02  1.8043249250854463e-02  1.1218481757530089e-03  2.4595063036488077e-03  7.4777283576642926e-03  1.1761350925735701e-04  8.4117623383356445e-05  6.0308576962269361e-03  3.8106615377269684e-02  6.1503512397091380e-03  5.4684234394031641e-04  8.8256269299311183e-06  2.1755606657461716e-06  1.4604854236355048e-03  5.0461956725047191e-02  7.2462351121368131e-05  5.7801310865610656e-06  8.5853365410309111e-04  7.3979817801397133e-07  5.6452577424042616e-05  2.6070602995557490e-06  9.6300979491559648e-05  5.5167931691579527e-05  4.4121665120649603e-05  2.1477766726333777e-02  6.0730583293204145e-05  3.1110316803001949e-06  5.1407011631851133e-05  1.3882590735290914e-04  5.9370650353201092e-07  1.3628569835917264e-06  2.3746411412198056e-06  5.9204433683874812e-02  5.4019953947091873e-02  4.6260326354363702e-02  5.2468474574542594e-05  6.3584933291872647e-02  1.4917904934594022e-03  1.8016812939224558e-05  4.6314300183476721e-03  5.0968428805108924e-05  2.1294239935636516e-03  3.8912118630689480e-04  7.1498340772445633e-08  2.0797293495571295e-03  2.9617399238295635e-04  2.8280985233046330e-02  5.1499718644076507e-02  1.4104041873336373e-05  5.6814585308777697e-07  2.1784628472276723e-07  2.1848598535612165e-07  3.3496033194071663e-02  3.2915528152721352e-05  6.3886484793039752e-02  2.7787337743165355e-06  1.2259289054354847e-06  5.5607585106960377e-08  3.7848048662821135e-05  6.5716886190942921e-04  1.9490220860600552e-02  1.0191942081519601e-04  5.1854364664639301e-04  9.9082845098290837e-05  2.8918273875465646e-02  5.0564029367641046e-02  4.0674842805529250e-02  3.6555493289433665e-05  2.3304101096712757e-03  4.2759897551949470e-02  6.4479088635710155e-02  3.0840887398509037e-03  4.6289709152632086e-02  2.4906619576833921e-03  1.7951333915776670e-03  3.4812343382259477e-02  2.8086086454191011e-02  2.2886041837275110e-02  4.5223458403001376e-02  6.4137746951246036e-02  6.4543996171604764e-02  7.9882636995481023e-06  2.6211101773986113e-03  4.4744226750737699e-03  3.9585666953244831e-05  4.9213960036165738e-02  4.6426630315134950e-06  2.9796421402474235e-02  2.2369834733720916e-03  3.3081296743533765e-02  6.1144267197994463e-02  1.3526114694552289e-02  3.4733767958625306e-03  4.2690535725260385e-04  5.2084961384509888e-02  4.3779530197547753e-02  1.9936299389744543e-05  2.5937951399642135e-06  5.8722297256113089e-02  5.3069721324370507e-06  1.5567086182092101e-06  3.2202230746542167e-02  1.4754827483598864e-03  1.4986992722264808e-02  2.1969338452574043e-03  1.8111032911231624e-02  4.0814638021756622e-05  1.7666378816357631e-02  1.4133489819753346e-02  5.5820935112381996e-04  6.3211805762134377e-04  4.1291154893402325e-04  2.2343657015579362e-04  1.9522622395864086e-04  1.1929992863532793e-03  4.0595989214769715e-02  1.9383666671945929e-03  1.1736345190719543e-02  3.2831643290238710e-03  7.6967924991212322e-03  6.2522585414323591e-03  1.3014967157256715e-04  4.0164023534811745e-03  5.9123386284998268e-05  3.5163520235658530e-05  2.2349660558952582e-03  3.0202745315570929e-03  2.5458810094270198e-02  2.2451610050946886e-02  1.5463306779588676e-02  1.9504009808045307e-02  2.0696895462481059e-06  4.4029376039652105e-04  3.6806466480935495e-04  7.0911523258083455e-04  9.6598896707930345e-04  5.1242606282718309e-04  1.3489230593868349e-04  6.6513443756244491e-03  3.5568869695860270e-04  4.6257989351869961e-05  2.2327673123912322e-07  5.5336928795302035e-05  1.3272948882985089e-02  3.6069315615322756e-02  5.1813846643618530e-02  5.2170196391173977e-03  1.0722052419794686e-05  2.7293518445536014e-02  5.5144935074425013e-04  6.9773456836398894e-05  6.0593516233174924e-02  2.3749459066182955e-05  6.6349771629113413e-05  6.2649410552171892e-05  3.8351799627824095e-06  4.6235778225036639e-06  9.1573702525330606e-05  3.6206354290080296e-02  1.1232030997438741e-02  1.3391337291138016e-02  4.6155620016440475e-02  1.1369194722781334e-03  5.0254017966315187e-04  8.8239272448813449e-03  4.0566949239434473e-07  1.0937352283333988e-03  1.7360587177495876e-02  3.5603837942999747e-02  4.1025975047703937e-02  3.8720823361808885e-04  1.0670263532511452e-04  1.4605212979482144e-05  8.1312080179916482e-05  1.6896180412612145e-05  7.1016934129109945e-07  6.5599078390348408e-06  1.5376718769087431e-03  2.0456228612903828e-04  2.8368021863153497e-06  4.8011092423409358e-06  1.8143952595567124e-03  3.5310187276931909e-04  6.7590705078887398e-04  1.1695001023717092e-03  3.0180881614896024e-04  8.49209823137