<?xml version="1.0"?>
<VTKFile type="UnstructuredGrid"  version="0.1"  >
<UnstructuredGrid>
<Piece  NumberOfPoints="6486" NumberOfCells="12696">
<Points>
<DataArray  type="Float64"  NumberOfComponents="3"  format="ascii">0 2.5 0  0 0 0  2.5 0 0  2.5 2.5 0  1.25 0 0  2.5 1.25 0  1.25 2.5 0  0 1.25 0  1.25 1.25 0  0 0.625 0  0.625 0 0  0.625 2.5 0  0 1.875 0  2.5 0.625 0  1.875 0 0  2.5 1.875 0  1.875 2.5 0  1.770833333333333 0.7291666666666666 0  0.7291666666666666 1.770833333333333 0  0.9375 0.625 0  1.875 1.5625 0  0.642361111111111 1.163194444444444 0  1.341594827586207 1.883979885057471 0  0.46875 0.46875 0  2.03125 2.03125 0  0.3626104797979798 1.513178661616162 0  1.381740196078431 0.4564950980392157 0  0.9375 2.172619047619047 0  2.172619047619047 0.9375 0  2.096354166666667 0.4036458333333332 0  0.4036458333333333 2.096354166666667 0  1.684027777777778 1.163194444444444 0  0.3418803418803419 0.8693910256410255 0  1.642742622813391 2.162164207604464 0  1.275619849389031 0.8465650753054845 0  0.9136284722222221 1.434461805555556 0  1.732437511238546 0.3406962303960658 0  0.9714402568595876 1.029779313093998 0  1.52281746031746 1.485615079365079 0  2.1875 1.71875 0  1.06819722569879 0.2997236128493951 0  2.136114211309524 1.303478422619048 0  0.3125 0 0  0 0.3125 0  2.5 2.1875 0  2.1875 2.5 0  0.3200021620376328 1.192323085056694 0  0.6738456129277992 0.8304377375553881 0  1.757891808928991 1.861952730357003 0  1.5625 0 0  0.9375 0 0  0.3125 2.5 0  2.1875 0 0  2.5 0.9375 0  0 0.9375 0  0 1.5625 0  0.9375 2.5 0  2.5 0.3125 0  0 2.1875 0  1.5625 2.5 0  2.5 1.5625 0  0.7448220909826522 0.3003573636608841 0  1.027298850574712 1.871151477832512 0  1.331260495098891 2.197262878816185 0  1.207917681892289 1.582765010956622 0  0.4339993447432606 1.801186844743261 0  0.6337298768939392 1.443093039772727 0  2.049851190476191 0.6826636904761904 0  0.6584821428571428 2.219122023809524 0  1.89575676467455 0.9798457973793544 0  1.437570562095628 1.059380588255917 0  1.502090052505845 0.6987070896496241 0  0.2040860661083546 1.705323965099331 0  0.2083333333333333 0.46875 0  0.5070952039991439 0.2211150679997147 0  0.6916302856529919 0.5813591430410241 0  2.265625 1.953125 0  2.2265625 2.2265625 0  1.886424081252096 2.243391360417365 0  1.40625 0.202164758520858 0  0.2269345238095238 0.2269345238095238 0  1.152730869673694 0.5225850378741401 0  1.885631899587912 1.312095130148776 0  1.614808884009367 0.9049784971014416 0  1.890095442220658 0.5126535558463003 0  2.323168682795699 0.46875 0  2.268811725689575 0.2304742875213018 0  0.6002389442105756 1.967426444210576 0  0.1768313172043011 2.03125 0  0.2311882743104251 2.269525712478698 0  2.03125 0.176831317204301 0  2.280262553344767 0.6954945504579233 0  1.979219539285994 1.809922269642997 0  2.336309523809524 1.09375 0  1.09375 2.336309523809524 0  0.9314042474388009 1.662973812215543 0  0.1634067999087722 1.40625 0  2.337090640094896 1.40625 0  1.141616997467638 2.069311773587991 0  0.46875 2.338939559681489 0  1.542440307908715 1.734944797244472 0  1.556713687786879 1.956977865354753 0  0.8264238995344066 1.975424467820646 0  1.466326331454725 1.275271369760862 0  1.655675324257095 0.5444159974393489 0  0.3385416666666666 0.6479255698005697 0  0 0.78125 0  0.5236073939200119 0.984090461540625 0  2.091665741047893 1.519793517904215 0  1.71875 2.5 0  0.5356538886262603 1.623137930505009 0  0 1.09375 0  0.1932884281517095 1.015625 0  0.8569313582417669 1.2198915584249 0  0.8876981284879677 0.8329884081524883 0  1.115618488474214 0.7219586973356271 0  1.186950366204949 1.043465130075318 0  2.057459118787237 1.110823087309335 0  1.830651283878689 2.049810069572418 0  1.689107969301489 1.367247437031697 0  0.4921048768039656 1.298643370653124 0  0.8213975694444444 2.336309523809524 0  2.03125 2.5 0  1.049729400480002 1.283723261332814 0  1.308101375801673 0.6489479469700392 0  2.5 2.34375 0  0.4968777175037714 0.7562964879736076 0  1.40625 2.5 0  1.501347663534097 2.307027627307738 0  1.602813712048603 0.1926218191360736 0  0.8393082906308107 0.463778306132633 0  1.682663349152719 1.598471865581041 0  0.7774174680851571 1.560004941327907 0  1.554204170364662 0.3898593897892066 0  1.842184459051087 0.186443880058197 0  1.358107417651776 1.696381759610015 0  1.18859291992392 1.77598670078022 0  0.1875331222687418 0.7609599743339348 0  1.339536743965101 1.422080365801479 0  0.7788179348750389 0.9955343414928611 0  0.9062978492805438 0.1919636509126373 0  1.256007360640958 0.3160320559396114 0  1.09375 0 0  1.174986727221844 0.1594990293443933 0  2.34375 1.796875 0  2.318026474511116 1.589177949022232 0  2.34375 2.5 0  1.672742954892153 2.332882724550692 0  0.2683637361947215 1.874801596909639 0  2.174770749820102 0.5581009131310781 0  1.443279522965991 0.8870068372898454 0  0.3385416666666667 0.3571428571428572 0  0.78125 0 0  2.060421048269335 2.314363248763811 0  1.088078737088509 0.8967352118723447 0  1.087825368444708 1.454931510884769 0  2.018308232129541 0.8548495425854904 0  1.943987311736842 0.3246298523011434 0  1.71875 0 0  1.85337849796276 1.144833312386208 0  2.3486328125 2.1044921875 0  1.407588788651747 2.042968789119587 0  2.336309523809524 0.865366648092144 0  2.34375 0 0  2.5 0.15625 0  0.15625 2.5 0  0 2.34375 0  0.1638044648294291 1.242263417405867 0  0.356216654757926 1.032569427322806 0  0.3188217956111817 1.355736727000647 0  0.5924956460852111 0.36112522004736 0  0.6594216488965849 0.1603472116132387 0  1.841804599497131 1.72214349266521 0  0.15625 0 0  0 0.15625 0  2.115898634821499 1.894570904464496 0  0.7821877980253907 0.7129993435924866 0  1.003820447087786 0.4516053462784233 0  0.477562948779147 1.138333049293613 0  0.719493678605015 1.305655360135975 0  0.9772457618587566 2.020350128938537 0  0.8764738248887107 1.826219722709673 0  1.254787875123819 2.339010653832026 0  2.343597354852534 1.249982759769001 0  0.78125 2.5 0  0.46875 2.5 0  2.5 1.40625 0  1.09375 2.5 0  2.5 0.78125 0  2.5 1.09375 0  2.03125 0 0  2.5 0.46875 0  1.40625 0 0  0.46875 0 0  0 0.46875 0  0 1.40625 0  0 1.71875 0  0 2.03125 0  2.5 1.71875 0  2.5 2.03125 0  2.005424054645407 1.653223486966518 0  0.1538730573856537 1.559850281736677 0  2.33984375 2.33984375 0  1.166539506212474 1.922878979538754 0  0.3914885633949916 1.65887232812171 0  0.5795503163042564 1.766243562569382 0  0.399533125920212 1.946786875081388 0  0.7866324979014098 2.127719094551316 0  0.3654683023546834 0.1495701132219454 0  0.1527388747131078 0.6116379440619215 0  2.013737577140188 1.391056634712135 0  1.17635437372994 2.213329084238133 0  1.737118141866284 1.010577140843115 0  2.200707118087222 1.164723314085963 0  1.697018908736685 1.993548551451517 0  0.5387621649009668 0.6070503962352419 0  2.032805785855952 0.5330427622570983 0  1.082699501358059 1.667818725183932 0  1.503819781540653 0.5468420196858188 0  2.015409142866072 2.175941657590429 0  1.752057611265444 0.869642097111018 0  0.612251684107783 2.356045720700959 0  1.902817102342857 0.6607642211999982 0  2.159616561739693 0.7867739969338844 0  0.5120038350106624 2.197302352398502 0  1.888200216011548 1.919501662489862 0  1.495909909726654 2.16028358757309 0  0.489139876703609 1.443203008943564 0  0.8819175670410521 0.3301172743913011 0  1.882591144370812 0.8155965192707721 0  1.133979796994841 1.172526771862882 0  2.206217447916667 2.084147135416667 0  2.20361328125 2.36279296875 0  1.395746985657004 1.556054166359645 0  1.704383111516207 1.734750450338683 0  0.9575737847222222 2.36274223823052 0  1.035150984253136 0.1302833343179028 0  1.383966125325753 0.7651479963479179 0  1.64003252158672 0.6824316405528895 0  2.22550785055421 1.487078576356817 0  1.760964431499756 1.48495222505201 0  1.276460980673788 2.004207003584658 0  0.1341477688427096 1.828777507920502 0  1.542261434180652 1.155296658359034 0  1.334627911613854 0.9696897472490321 0  1.30794231473696 1.119420615785191 0  0.7028260459857245 0.4438906910721139 0  1.625757433094055 1.84268057552138 0  0.9818707849053143 1.165603626132254 0  2.0086489901463 1.243134585689553 0  1.934584460420609 2.374094051915812 0  1.798434376789567 2.38671361912528 0  1.206314791201715 1.382064292497919 0  0.6333752893366955 0.7023738550008095 0  0.7796219811205605 1.42573253164258 0  1.564399711917382 1.026040828857629 0  0.3385416666666666 0.4889012896825397 0  0.1041666666666667 0.390625 0  0.989112246382566 1.543537365516289 0  2.025724425454636 0.9846960595520872 0  0.6602885475034063 2.086117390485779 0  1.607130551925032 1.267198646640915 0  0.1317864544877056 0.8896173683400176 0  1.755387840017567 2.230364320056445 0  1.301540702984401 0.1216289692748247 0  1.433170657577442 0.3331052752740999 0  1.500459610550388 0.113513924782439 0  0.6494291520606965 1.029586599619295 0  1.010146149868299 0.794897284196169 0  0.3700844198238017 2.235390157870766 0  0.3360891767780704 2.36656279435396 0  1.876856241037701 1.437150669863757 0  1.778674102957329 1.245979347269706 0  0.5472829890977179 0.1005517127039925 0  0.4669074189005698 0.3416784232954367 0  1.472765289289269 1.850899166481903 0  1.555853593327178 1.608452097912802 0  0.6708955559113426 1.646561631116984 0  0.8164699620322933 0.5924479455478063 0  0.3167738989468366 1.758696809749795 0  0.2788007305565096 1.605499483471246 0  0.7821720982350511 0.181524936294752 0  1.376812251214195 2.313340247908297 0  1.785652202614777 0.5962261755537186 0  1.761467296310972 0.4679567244718574 0  2.2265625 1.8359375 0  2.3828125 1.9140625 0  0.5279531607054191 2.071552361614785 0  2.397573269551114 0.234375 0  2.383578172599618 0.3589298466020009 0  0.1024267304488855 2.265625 0  0.1164218274003825 2.141070153397999 0  0.2696857594953064 2.135405441512016 0  2.164961300137334 0.1375322943529536 0  2.137757548369486 0.2724194778647587 0  2.238873711826398 0.3626419179496562 0  0.1001414910226386 0.234375 0  0.2176339285714286 0.3478422619047619 0  0.2503620791333544 0.1061694061057066 0  2.336445461915368 0.1250451055247424 0  0.2154004640409726 2.3918124
[...]
<PointData  Scalars="f_124-1"> 
<DataArray  type="Float64"  Name="f_124-1"  format="ascii">5.9487412476983893e-02  4.7114671036198831e-03  1.6544657606173269e-03  2.9050871881930045e-02  3.6212859416029581e-03  1.6629351090285151e-03  6.0179695756817336e-02  6.5752250273825294e-02  3.5811234806315081e-02  6.6730391933908895e-02  4.7171677558071048e-03  5.9911896197434283e-02  6.4553298883911245e-02  1.5310815295788123e-03  2.5867785599353555e-03  7.4087018476131925e-03  5.4711652483030025e-02  2.8324235493040551e-03  6.4811632493484858e-02  1.2205115985214775e-02  1.6722452173311836e-02  6.4398073387216453e-02  5.9848151029979937e-02  3.7927846367312577e-02  3.3629851697790196e-02  6.5310797000586535e-02  3.4805767922705161e-03  6.3512365225744313e-02  2.1061189630714071e-03  2.1915440054312723e-03  6.3809378610223469e-02  8.1015755126692141e-03  6.6348506825299011e-02  5.7155742340316812e-02  9.2975779712095776e-03  6.2349303883864365e-02  2.7846403124701172e-03  4.0711433771939878e-02  3.2775591079464289e-02  1.0737023405789555e-02  4.0340428210831475e-03  3.5298284681252769e-03  5.0828965593270204e-03  4.3259992648673286e-02  1.7889809641940480e-02  4.3742981403517608e-02  6.5846495740844196e-02  5.1014689391955206e-02  4.0222347095611864e-02  3.0726893180424448e-03  4.1797548762133440e-03  5.9361852487887071e-02  2.0876778570858038e-03  1.5150744776564289e-03  6.6222439415745932e-02  6.5230018072460066e-02  5.9993275115231393e-02  1.5860994664283140e-03  6.3178115108299099e-02  5.9203072954488185e-02  2.8202294990057964e-03  5.4694335186474454e-03  6.4107061150758607e-02  6.2514530830735882e-02  5.6407538521523283e-02  6.4789780356270227e-02  6.5288151637107078e-02  2.2607935595359398e-03  6.3082459986094921e-02  2.9900788900545654e-03  1.2000821789040682e-02  3.6361806022601937e-03  6.4975733506535002e-02  6.4134610486122651e-02  7.5790498828580037e-03  2.5498741292586526e-02  1.6806665059649614e-02  3.2341347961668709e-02  5.0372632405558761e-02  3.3520719671942898e-03  2.8706107959321339e-02  4.4834859071523911e-03  7.2537855577818359e-03  4.4200459895773619e-03  2.5234002648210668e-03  1.8003054464643636e-03  1.9256946980006873e-03  6.4370872945277602e-02  6.4061978900074507e-02  6.2485224476321787e-02  2.3182773574053515e-03  1.8637598075659585e-03  2.4248293035612656e-02  1.8432724836204976e-03  6.2122430156858789e-02  6.4168704151111144e-02  6.5498887677649303e-02  2.7680923442482751e-03  6.3645111927272208e-02  6.1850326226517746e-02  4.6191938271356085e-02  5.4728998381789629e-02  6.4357767108298783e-02  2.2153756266662751e-02  2.9777505736665903e-03  6.4172181095149716e-02  6.6479611998408905e-02  6.4709639797832591e-02  7.5413551421936974e-03  5.7678250887506728e-02  6.5110753407796901e-02  6.5983641545358851e-02  6.6124903191246129e-02  5.9074807462006239e-02  3.1329283953506024e-02  9.5207101811573287e-03  2.5382533525557457e-02  2.7925590205566384e-03  4.5295782123143266e-02  1.5606868983080226e-02  6.5624173777518405e-02  6.2053343562073267e-02  4.9905172249305435e-02  5.1474388578097191e-02  4.4292423601426101e-03  2.4250282915660226e-02  6.0156591276198747e-02  5.9907029470340288e-02  6.0948317220440654e-02  3.0078861002635769e-03  8.0945655911533430e-03  2.9193356144192863e-02  6.4878090688463119e-02  3.1231050861085111e-03  2.5972016161754565e-03  5.3952310356325715e-02  6.1685406944173342e-02  6.6827009786607688e-02  4.0599724374320828e-02  5.3392824233388023e-02  4.2709980138728003e-03  3.6589816883376516e-03  3.8971109482192640e-03  3.7933804581698934e-03  8.5931349392817241e-03  4.8837034390446883e-03  3.5861880797202886e-02  5.8505025949060520e-02  6.4610395499737641e-02  2.0360764109009976e-03  6.3937249900420335e-03  4.1918505906346708e-02  4.4387745381844817e-03  4.4876672933836723e-02  2.1179112363561001e-02  5.6967249037491591e-02  2.3801441353134487e-03  2.4379909832551762e-03  2.8329057106197151e-03  4.6408831871225069e-03  2.0088778354741724e-02  6.0874181736137921e-02  1.7594906985011673e-03  1.8701156120299928e-03  1.6322512185853041e-03  5.9456749671096543e-02  6.1394676959067800e-02  6.5747025449468352e-02  6.6149554148949644e-02  6.5569205343882178e-02  1.2457584724823634e-02  4.8172971001834188e-03  2.7130575657193175e-02  4.5619345247998513e-03  1.7828973899069650e-02  2.1358964180063774e-02  2.9491875198389181e-02  5.0642103744445287e-03  6.5800306574758424e-02  6.4402325208956765e-02  6.4136194614210953e-02  6.4578496965199558e-02  6.2043150844669666e-02  2.0648067239488251e-03  5.9953726053360162e-02  5.9486075099346183e-02  1.9758730712876806e-03  6.0104687123558521e-02  1.5329557960432659e-03  1.5499794915606832e-03  2.3461702326330416e-03  1.5478858739276444e-03  3.3190249625522582e-03  5.0019401120503593e-03  6.4477885904683785e-02  6.5507394610225034e-02  6.4940310422239078e-02  6.4091654968938025e-02  4.4960597390074986e-03  1.2072344510920530e-02  1.4715266623345238e-02  6.5232694308118705e-02  3.1251985176026280e-02  6.3313528211606837e-02  6.5076865421045627e-02  6.4848925733967944e-02  6.4420169689944462e-02  6.3762644005375457e-02  8.4628844703256833e-03  6.7630605694611337e-02  6.4063571631147211e-03  6.3120722621104339e-02  4.3190921344599892e-03  2.3409841932109402e-03  4.9589670724976012e-02  4.5384082810686309e-02  2.2921569445278414e-03  6.2228477567606993e-02  3.2744747227562002e-03  4.1564092744654932e-02  3.1888153809119415e-03  6.1702101730392839e-02  2.5239965083752878e-03  2.0791991772699859e-03  6.3239169115696076e-02  3.5769194785121278e-02  6.0531045460032455e-02  6.5416528274079136e-02  4.7803001690100788e-03  2.6232856382202158e-03  3.8993771981369232e-02  2.6577362169503651e-02  3.9097707840935636e-02  4.4923559055245713e-02  3.6476396810618657e-02  6.1767605422098762e-02  4.0357157230843264e-03  5.0979989205693034e-03  3.0899153484123965e-03  4.6636746089026414e-03  1.8429067630824518e-02  6.2593937304956437e-02  6.4721962469149616e-02  1.2032577961188163e-02  1.1972936042839093e-02  2.2129642112729848e-02  1.2771571060689026e-02  4.6672578857682251e-02  4.9549916404945070e-02  4.2392562980304253e-03  5.1630400178289362e-02  5.6064249771829881e-02  4.7401797417443312e-02  4.4573025419261100e-02  6.4510920115997863e-02  7.2358192294886730e-03  5.6246301808695810e-02  5.4275103093163461e-02  6.2458546141522062e-02  2.5032824924625862e-03  6.3905043716156740e-02  1.4493762522433810e-02  6.6346615305421963e-02  5.5192805239160633e-02  3.5366385814451524e-03  3.3350138955548798e-03  3.1750815329942622e-03  6.2028852333904150e-02  1.8968107044895804e-02  6.2902099049819332e-02  6.1329085933748473e-02  1.1098231380388112e-02  8.0653230781346265e-03  4.9616978065799367e-03  2.1040286093900518e-02  5.4469247803171063e-02  3.7841573972665368e-02  6.5018877265309249e-02  1.7135085950603347e-02  6.4876504517805036e-02  6.5164892172766178e-02  4.5390378833183639e-03  6.1808118670035335e-02  2.7381961303180164e-03  2.7492505046794674e-03  1.3732309743249528e-02  1.0908402063434446e-02  6.3964187585576926e-02  1.7161030945613204e-03  1.7272540730539656e-03  6.2503746102889571e-02  6.3565378722899107e-02  6.3590035509260470e-02  2.1062726205811626e-03  2.1421599966609853e-03  1.9772226690374668e-03  2.9299561710507186e-02  4.8497537178569174e-02  9.4417465425184737e-03  1.8367610337930770e-03  6.0855837949789826e-02  6.3180129754141376e-02  1.2859230917661224e-02  2.8145291870312521e-03  7.1532831725060241e-03  3.9374965256195431e-03  3.8762886491190930e-03  6.4261318639265527e-02  2.4345996524788343e-02  6.0132241910724610e-02  6.4387035620682417e-02  2.4809441713412659e-03  1.7176049850806171e-03  1.6831044492610068e-03  2.4028679286890266e-02  2.4978768480537102e-02  6.4559261090610637e-02  6.4572830445137827e-02  4.1305243695056414e-03  7.5343353936468821e-03  2.3734471158749246e-02  2.6062853167541432e-03  6.4505276163119657e-02  6.4802952328616173e-02  6.4165166994353831e-02  2.0553900778155746e-03  4.3300755915689415e-03  2.0874756404465509e-03  6.3113247563348449e-02  6.5912647421950757e-02  1.6935467282248428e-03  6.6747647085371523e-02  6.5310076856991500e-02  1.5701503975804713e-02  2.9344238493864343e-02  2.3745009633326440e-03  6.1098081659256044e-02  6.5407787423730046e-02  6.5632365421394792e-02  2.7139344852806831e-03  2.8147191787424716e-03  5.1802931677231823e-02  2.9484952283698410e-03  3.3065015261374668e-03  4.5042829426647731e-02  2.6956985493298423e-03  4.2311130432534198e-03  5.5848139167312544e-02  1.8990997661552621e-02  6.1150837843200669e-02  5.8888220946430092e-02  6.6502995474370136e-02  5.4524962987714420e-02  6.5308737693689820e-02  2.9419634457406273e-03  6.5095293350961425e-02  6.5856688203039179e-02  1.9850130990821777e-03  1.7166201009232954e-03  6.0869069965646547e-02  6.0712980459656250e-02  3.0084490997945100e-02  1.1504034892469431e-02  4.8132234809535523e-03  3.5943681697164836e-03  4.5776260179115617e-02  3.1470364428796472e-03  5.1838253340247317e-02  6.4024222712833825e-02  6.4391063032091134e-02  3.2473823048802107e-02  6.5385716444181050e-02  1.8010090043803946e-02  3.4873110954998961e-02  4.6773245365412212e-02  3.8711886865854347e-02  1.6673227504453582e-02  6.0282860433354020e-02  6.0199813752460432e-02  2.1942321061489259e-02  3.9838432015595587e-02  3.1164973363684990e-02  2.4167526794754341e-03  6.2810835732888939e-02  6.3330023046769504e-02  6.0008103945532985e-02  6.3973017028021467e-02  6.3750982836645514e-02  1.8936910310611015e-03  6.4048334663756201e-02  3.7215639467750436e-03  6.4643036584524508e-03  6.3083440256315834e-02  6.6411019384198106e-02  4.2454010796058532e-02  2.3611774967860905e-02  3.2764370401832756e-02  2.9539118440092597e-03  7.2721670905665755e-03  5.7848744582569833e-02  6.8091780345199665e-02  6.6141878052094330e-02  3.0998341336190326e-03  2.3310811656186660e-03  4.9194472153661607e-02  3.0261333415289517e-03  5.9866946880596981e-02  6.5190766051325635e-02  5.9821105341368690e-02  1.7403586106447199e-03  5.4064493850090800e-03  7.0563047973956246e-03  1.2040355953001505e-02  2.0307711047004018e-03  6.4969867518294838e-02  6.5242381957891532e-02  1.1269184963570208e-02  5.7974229161316268e-02  6.4979495922186450e-02  5.9633273500350907e-02  4.4027634573444635e-02  5.8877635428788745e-02  3.0764748651875451e-02  5.9769312328217236e-02  6.5464942011566760e-02  6.5785556291885081e-02  6.4663061877449315e-02  2.7816383796426859e-02  4.3160647706691146e-02  3.8652218747834324e-02  4.5637414618707670e-03  5.3510509690100877e-02  6.0919156955381248e-02  6.2410602323969791e-02  2.2974982075464299e-03  3.6259800281063484e-03  6.4256016799365545e-02  3.3507137169785841e-03  5.9090793363496881e-02  4.5269433860787517e-03  1.8859798186877884e-03  6.4919054289638747e-02  3.0233296715213395e-02  2.6496153817062288e-03  3.7170732742550505e-02  5.3681250503280625e-02  3.8034787111208661e-02  3.9471106880490953e-03  4.2293751968736594e-03  1.9804610775371518e-03  6.0035505691489910e-02  6.5982691667970356e-02  6.1666797229067545e-02  1.5516306895414557e-02  1.9493105948853982e-03  5.9972473347140509e-02  1.2684934962940072e-02  6.3938725480751982e-02  5.1871070774932200e-02  6.6507770365592647e-02  5.2559487990226188e-02  3.1584801980983090e-03  6.5698302189944255e-02  2.2063644826962824e-03  2.2624238104708701e-03  6.5540428240602092e-02  6.2711987839266167e-02  6.5882014323229224e-02  3.1010931405016568e-03  6.7044076673265202e-02  2.4477849963452413e-03  7.0148501632270235e-03  9.6356188251925361e-03  3.8212642061569383e-03  3.5119627177159552e-03  3.4856330910841777e-03  5.9050375451169757e-02  6.1686972913678709e-02  5.3315316637110331e-02  5.7813737090765928e-03  5.9407502985224868e-02  4.8004647371591457e-02  3.8877422003439542e-02  6.2504152954213507e-02  6.5466728423208956e-02  5.8620533277907137e-02  1.4545306887680711e-02  3.9502164191101653e-03  6.3387980595311894e-02  6.3640487509439153e-02  6.5128687943068336e-02  3.2898203969608437e-03  1.1327993540996497e-02  6.0703973245574356e-03  1.5217666520635463e-03  3.6279415771048617e-03  4.9913614017793742e-03  5.0666092598122651e-02  6.4503037933598489e-02  3.0998341283783003e-02  2.3707614348620690e-03  8.0867015516518457e-03  2.9649503096529289e-02  5.0820041504347465e-03  1.5316830095596882e-03  1.6538519733873291e-03  6.1104510226749356e-02  4.1741433177723709e-03  6.4703976326143983e-02  6.4798475281669529e-02  3.2838294753816306e-03  4.8875096196859327e-02  4.3855001114016991e-03  6.2361588870577980e-02  6.9468478983931228e-03  6.5828546428618948e-02  3.5253769038420470e-03  6.4759187423328243e-02  6.4299311432438541e-02  6.0551576279874626e-02  6.0827876150419263e-02  3.8899886148496023e-03  4.6065172555054216e-03  2.6764798406645245e-02  1.8306712692777243e-03  6.3242830367376907e-02  6.4568786182635091e-02  5.3006830419895954e-03  3.7772810863592821e-03  1.9603942326054294e-02  6.4102525345525949e-02  1.5925287175858217e-02  2.1620374294984020e-03  3.6872283427541387e-03  1.5340756739849666e-03  2.2836631878609755e-03  2.2535605848659130e-03  2.5843319636940998e-03  7.7186224706388045e-03  1.2363453714285553e-02  5.7385817316226786e-03  1.6482429917253007e-03  6.3513763392178679e-02  2.1505968113406477e-03  6.6003451471933622e-02  6.5981049396030986e-02  5.1352981899665459e-03  5.8306453029103138e-02  5.7847086190112321e-02  1.0689572942350768e-02  1.8745382511730004e-02  2.6272167561546728e-02  8.2942820588573704e-03  9.0105973922331127e-03  1.8467103820995411e-03  6.3244799753047823e-02  6.4554749156584601e-02  5.2729039179134941e-03  2.0507688063275221e-02  6.2467623839195394e-02  1.9704424248887117e-03  3.8442758376599544e-02  5.6408887497620776e-02  3.7918514710962858e-02  6.3446553828886337e-02  1.7159682318223901e-03  2.2685152337277800e-02  6.6339934085965016e-02  1.6387589069163939e-03  6.1794788288770872e-02  3.1632802553703313e-03  2.9019093409214194e-03  6.1411554561996561e-02  2.5451542366811658e-02  3.9965023092298879e-02  5.4510552898718062e-02  1.4932655272281235e-02  6.6659495156694809e-02  6.5273958553255629e-02  5.7752522947216389e-02  2.3554291571066433e-03  1.6187644167494624e-03  6.4731064817446116e-02  4.6844282113619601e-02  5.3108357783483717e-03  3.4447174689680024e-03  9.3945847838970264e-03  3.9244372489661172e-02  6.6241280616627971e-02  6.5217673275551807e-02  4.2519223537008932e-02  6.5693682703051176e-02  1.8736698883382329e-02  4.4463509978366830e-03  3.4841107279531677e-03  2.7956696333553506e-03  2.0660358543832573e-02  6.5567443540571632e-02  8.5010140721186664e-03  4.7524763770205201e-03  5.2225138104273023e-03  2.3714721860584750e-02  1.0762864047766288e-02  1.6621608163085294e-03  1.5294204923363085e-03  4.7488446426431109e-02  6.0376927663853788e-02  1.5038669355530837e-02  6.5439825675318627e-02  4.3148550628253853e-02  3.4734536084505246e-02  2.0211318145683384e-03  4.0506955235496906e-03  1.8264645829160819e-02  1.9262771278320812e-03  2.1214274793222590e-02  6.1028439797315703e-02  4.0741320846189810e-02  1.5616427389691455e-02  2.0857858359275949e-02  4.4179575278508179e-03  6.2395221965277629e-02  6.2077615460597813e-02  4.6777916287069144e-03  5.6176642399968372e-03  2.7279216660354526e-02  3.4636601627127603e-03  2.9602025429103757e-02  2.2385031388491582e-02  6.3636106529212658e-02  1.6288319248952677e-03  3.1795009552618519e-02  4.0969082706497129e-02  3.9093616172337711e-03  1.0809699345016306e-02  6.4510337056397735e-02  4.1537513280931635e-03  5.2698851811778344e-02  5.8181040408571277e-03  2.0359782878010546e-03  2.2909687743915669e-03  4.1156333396600315e-03  2.4235003102157458e-03  6.1385661155449522e-02  6.5010251940536709e-02  6.3599404589471803e-02  6.4106639910678553e-02  6.4377856423918411e-02  3.9284844354993083e-02  2.8162459578334477e-03  3.2148155498539006e-02  5.3732674348677900e-02  5.7169797892558036e-02  9.2533407542636122e-03  2.3277992057927424e-03  1.8196662778921660e-03  6.3673806031896887e-02  6.5749774285923782e-02  6.0660281447334381e-02  3.2646344611807019e-03  3.7524484262286715e-03  3.9930352831804669e-02  5.9997035789932353e-02  4.7059775660060664e-02  6.0399083870302683e-02  5.9539489787561399e-02  6.0027850620733972e-02  6.5094234453512062e-02  5.9982919316557436e-02  3.5645937512245349e-03  2.6933543803316874e-03  2.9561450681374760e-03  1.5864024749022009e-03  1.7727749979541353e-03  2.3244377861607571e-03  6.6099994101908185e-02  6.5863389192314978e-02  6.5639046433761769e-02  6.0160315405800670e-02  6.6644983511013639e-02  4.3064665300874983e-03  2.4696276189906069e-03  6.4373320480523077e-02  5.9377010796505099e-02  4.9291539399105889e-03  6.2329464168939856e-02  1.6062703428720104e-03  4.8797899193257135e-03  3.2075854470969534e-03  3.1080994297120770e-02  5.4302631651816105e-02  5.6330548403718733e-02  2.1040171706153358e-02  2.7273458640318913e-02  3.1892670941156075e-02  6.5357975570626017e-02  5.9561049129260447e-02  6.6717002869764841e-02  5.6952903842144289e-03  1.4733843750649489e-02  1.5656484579898589e-03  2.5539108379077097e-03  6.2953999170681826e-02  6.3045292841124492e-02  6.0797133219618042e-02  3.4685336172124732e-03  6.1091254540567408e-02  3.1747939728661662e-02  5.3522161222789515e-02  4.3499802088154488e-02  1.0194101185382984e-02  5.1302002266345034e-03  4.6999633656229632e-02  6.7336583959286628e-02  6.4152161754787149e-02  6.2733951905900781e-02  5.3570250844878807e-03  6.3916833571188422e-02  6.5385680870111540e-02  6.5244027605205576e-02  6.5129724673034697e-02  6.5614265627277582e-02  6.7137612919315567e-02  6.7371161655704573e-02  2.0745042591085658e-03  5.1904551097861150e-02  6.4212519900729986e-02  2.7749987396298507e-03  5.2448889751225421e-02  2.3262604778529514e-03  6.5281313087860088e-02  6.3889492517088114e-02  4.4248287261431901e-02  6.6270333215758120e-02  4.0384364496084582e-02  6.4264498547256854e-02  3.3598865997024946e-03  5.9492980147446736e-02  5.3809710006114363e-02  2.4772569142149153e-03  1.8752014681020900e-03  6.3146675465963087e-02  2.1075857801512643e-03  1.9698799408391430e-03  6.4030129326290874e-02  5.8860676465566910e-03  1.7885519039535714e-02  1.1054266914048991e-02  2.0924881267321595e-02  6.7635025561517299e-03  6.5008721839404163e-02  6.4899814369074993e-02  5.8617551219757466e-02  7.7928113098754562e-03  5.7081994537259003e-03  6.5615497164358055e-03  4.5969893005386557e-03  6.3600436775269387e-02  6.5508533892837395e-02  6.3255191057567370e-02  6.4823405979827164e-02  6.4706705652246921e-03  6.4627632148833811e-02  6.4525657909472678e-02  6.1182193693194470e-02  8.4803500491207207e-03  2.6850008102624586e-03  2.5743706615194381e-03  6.3956648147978704e-02  6.3651615976596812e-02  6.5191410128370486e-02  6.5127598029567815e-02  6.4942456913150357e-02  2.4429015986407954e-02  2.0785421195998652e-03  6.2834009878746377e-02  6.2621444959181635e-02  6.3108150530851545e-02  6.3364843912426153e-02  6.2765712417478733e-02  5.9686834931017632e-02  2.5891056564682245e-02  3.2786668217824177e-03  5.5081179294608510e-03  1.6519788447892929e-03  3.5613056267628923e-03  6.3485126596384014e-02  6.5064952869347492e-02  6.5798098688660003e-02  1.7934209159594618e-02  2.3696897988073683e-03  3.0435516020252382e-02  3.4807880112032851e-03  5.6968131903183394e-02  6.3976781878491054e-02  2.5189460052205863e-03  3.6641450814759009e-02  4.6004187201916999e-02  1.2033450812737332e-02  2.1526122629374925e-03  6.0287891075594194e-02  6.5424029734227257e-02  5.0058346090448708e-02  2.4951210596481931e-02  6.5657852242994280e-02  5.2865320754065845e-02  4.7593569061995925e-02  6.4705777469600656e-02  1.8233604962027492e-03  3.9882697933369760e-03  5.9669489897523992e-02  6.5383691774488356e-02  6.5523280603118420e-02  6.2495813354922714e-02  6.0709194072338643e-02  2.4026824909261810e-03  6.0157713205365962e-02  2.4012887155495425e-03  1.9162149631601806e-03  4.2933986585903840e-02  6.3718808867840496e-02  3.0770203592555933e-03  3.4514186816072746e-02  2.2245431172616572e-03  5.8263358478264540e-02  6.2327929101167391e-02  6.3029906039841613e-02  6.3504233276001645e-02  6.2110698201521763e-02  1.24415953237