<?xml version="1.0"?>
<VTKFile type="UnstructuredGrid"  version="0.1"  >
<UnstructuredGrid>
<Piece  NumberOfPoints="6454" NumberOfCells="12638">
<Points>
<DataArray  type="Float64"  NumberOfComponents="3"  format="ascii">0 1.5 0  0 0 0  1.5 0 0  1.5 1.5 0  0.75 0 0  1.5 0.75 0  0.75 1.5 0  0 0.75 0  0.75 0.75 0  0 0.375 0  0.375 0 0  0.375 1.5 0  0 1.125 0  1.5 0.375 0  1.125 0 0  1.5 1.125 0  1.125 1.5 0  1.0625 0.4375 0  0.4375 1.0625 0  0.5625 0.375 0  1.125 0.9375 0  0.3854166666666667 0.6979166666666666 0  0.8049568965517241 1.130387931034483 0  0.28125 0.28125 0  1.21875 1.21875 0  0.2175662878787879 0.9079071969696969 0  0.5625 1.303571428571429 0  0.8290441176470589 0.2738970588235294 0  1.303571428571429 0.5625 0  1.2578125 0.2421875 0  0.2421875 1.2578125 0  1.010416666666667 0.6979166666666666 0  0.2051282051282051 0.5216346153846153 0  0.9856455736880344 1.297298524562678 0  0.7653719096334186 0.5079390451832908 0  0.5481770833333334 0.8606770833333333 0  1.039462506743128 0.2044177382376396 0  0.5828641541157527 0.6178675878563986 0  0.9136904761904763 0.8913690476190476 0  1.3125 1.03125 0  0.6409183354192741 0.1798341677096371 0  1.281668526785714 0.7820870535714286 0  0.1875 0 0  0 0.1875 0  1.5 1.3125 0  1.3125 1.5 0  0.1920012972225798 0.7153938510340165 0  0.4043073677566794 0.4982626425332328 0  1.054735085357395 1.117171638214202 0  0.9375 0 0  0.5625 0 0  0.1875 1.5 0  1.3125 0 0  1.5 0.5625 0  0 0.5625 0  0 0.9375 0  0.5625 1.5 0  1.5 0.1875 0  0 1.3125 0  0.9375 1.5 0  1.5 0.9375 0  0.4468932545895913 0.1802144181965304 0  0.7987562970593343 1.318357727289711 0  0.6320399113235965 1.037924776639822 0  0.2603996068459564 1.080712106845956 0  0.3802379261363636 0.8658558238636362 0  0.3950892857142857 1.331473214285714 0  1.229910714285714 0.4095982142857143 0  1.13745405880473 0.5879074784276126 0  0.7482946595664349 0.917427298948138 0  0.8625423372573767 0.63562835295355 0  0.9012540315035069 0.4192242537897745 0  0.6862861647268528 1.220560482834343 0  0.1224516396650128 1.023194379059598 0  0.125 0.28125 0  0.3042571223994863 0.1326690407998288 0  0.4149781713917952 0.3488154858246145 0  1.359375 1.171875 0  1.3359375 1.3359375 0  1.131854448751258 1.346034816250419 0  0.84375 0.1212988551125148 0  0.1361607142857143 0.1361607142857143 0  0.691638521804216 0.3135510227244841 0  1.131379139752747 0.7872570780892659 0  0.9688853304056201 0.5429870982608649 0  1.134057265332395 0.3075921335077801 0  0.1060987903225806 1.21875 0  0.1387129645862553 1.361715427487219 0  1.393901209677419 0.28125 0  1.361287035413745 0.1382845725127811 0  1.21875 0.1060987903225807 0  0.3601433665263453 1.180455866526345 0  0.5483798738512705 1.157949853770241 0  1.36815753200686 0.4172967302747542 0  1.187531723571597 1.085953361785798 0  1.401785714285714 0.65625 0  0.65625 1.401785714285714 0  0.09804407994526333 0.84375 0  1.402254384056937 0.84375 0  0.28125 1.403363735808893 0  0.925464184745229 1.040966878346683 0  0.9340282126721275 1.174186719212852 0  0.8797957988728348 0.7651628218565172 0  0.9934051945542568 0.3266495984636094 0  0.203125 0.3887553418803418 0  0.3141644363520071 0.590454276924375 0  0 0.46875 0  1.254999444628736 0.9118761107425289 0  1.03125 1.5 0  0.3213923331757561 0.9738827583030052 0  0 0.65625 0  0.1159730568910257 0.609375 0  0.5141588149450601 0.7319349350549398 0  0.5326188770927806 0.499793044891493 0  0.6693710930845284 0.4331752184013763 0  0.7121702197229691 0.6260790780451906 0  1.234475471272342 0.6664938523856012 0  1.098390770327214 1.229886041743451 0  1.013464781580893 0.8203484622190179 0  0.2952629260823795 0.7791860223918741 0  0.4928385416666666 1.401785714285714 0  1.21875 1.5 0  0.6298376402880013 0.7702339567996885 0  0.7848608254810038 0.3893687681820236 0  1.5 1.40625 0  0.4622923140598757 1.236370233688302 0  0.4667991207677928 0.9473088592382519 0  0.2981266305022628 0.4537778927841646 0  0.84375 1.5 0  0.9008085981204581 1.384216576384643 0  0.9616882272291621 0.1155730914816442 0  0.5035849743784865 0.2782669836795798 0  1.009598009491631 0.9590831193486247 0  1.105310675430652 0.1118663280349183 0  0.9288474621627256 0.2227857609567891 0  0.7464170347051563 1.031945227193052 0  0.1125198733612451 0.4565759846003609 0  0.841690222029119 0.9722978654718903 0  0.4672907609250232 0.5973206048957169 0  0.5437787095683263 0.1151781905475824 0  0.7536044163845748 0.1896192335637668 0  0.65625 0 0  0.7049920363331066 0.09569941760663599 0  1.40625 1.078125 0  1.39081588470667 0.9535067694133395 0  1.40625 1.5 0  0.6375104178177308 0.9268732242701165 0  1.003645772935292 1.399729634730415 0  0.1610182417168329 1.124880958145783 0  1.304862449892061 0.3348605478786471 0  0.8685031591756179 0.5174815394805063 0  0.203125 0.2142857142857143 0  0.46875 0 0  1.236252628961601 1.388617949258287 0  0.6528472422531054 0.5380411271234069 0  0.8059365139027533 0.8342920789922936 0  1.210984939277725 0.5129097255512943 0  1.166392387042105 0.1947779113806861 0  1.03125 0 0  1.112027098777656 0.6868999874317245 0  1.4091796875 1.2626953125 0  0.7056210334910562 1.122831931927321 0  0.8445532731910484 1.225781273471752 0  1.401785714285714 0.5192199888552865 0  0.5315992325579575 1.02511262900491 0  1.40625 0 0  1.5 0.09375 0  0.09375 1.5 0  0 1.40625 0  0.09828267889765753 0.7453580504435201 0  0.2137299928547555 0.6195416563936835 0  0.191293077366709 0.8134420362003882 0  0.395652989337951 0.09620832696794322 0  0.3786395303236629 0.2546156254865724 0  1.105082759698279 1.033286095599126 0  0.09375 0 0  0 0.09375 0  1.269539180892899 1.136742542678697 0  0.4693126788152344 0.427799606155492 0  0.6022922682526717 0.2709632077670539 0  0.286537769267488 0.682999829576168 0  0.431696207163009 0.7833932160815852 0  0.6864071374811688 0.8459705255349474 0  0.7528727250742914 1.403406392299215 0  1.40615841291152 0.7499896558614008 0  0.46875 1.5 0  0.28125 1.5 0  1.5 0.84375 0  0.65625 1.5 0  1.5 0.46875 0  1.5 0.65625 0  1.21875 0 0  1.5 0.28125 0  0.84375 0 0  0.28125 0 0  0 0.28125 0  0 0.84375 0  0 1.03125 0  0 1.21875 0  1.5 1.03125 0  1.5 1.21875 0  1.203254432787244 0.991934092179911 0  0.7018429057870754 1.316240552056942 0  0.09232383443139219 0.9359101690420062 0  1.40390625 1.40390625 0  0.2348931380369949 0.995323396873026 0  0.3477301897825538 1.059746137541629 0  0.2397198755521273 1.168072125048833 0  0.21928098141281 0.08974206793316726 0  0.09164332482786468 0.3669827664371529 0  0.4604861261832766 1.147925083553434 0  1.208242546284113 0.8346339808272811 0  1.042270885119771 0.6063462845058686 0  1.320424270852333 0.6988339884515781 0  1.018211345242011 1.19612913087091 0  0.3232572989405801 0.3642302377411452 0  1.219683471513571 0.319825657354259 0  0.9022918689243919 0.3281052118114913 0  1.209245485719643 1.305564994554257 0  1.051234566759267 0.5217852582666107 0  0.3673510104646698 1.413627432420576 0  1.295769937043816 0.4720643981603306 0  0.3072023010063974 1.318381411439101 0  1.141690261405714 0.3964585327199988 0  1.132920129606929 1.151700997493917 0  0.4797323103182937 1.318677829548113 0  0.8975459458359925 1.296170152543854 0  0.464209749529605 0.8633392490855897 0  0.2934839260221656 0.8659218053661386 0  0.5291505402246311 0.1980703646347806 0  1.129554686622487 0.4893579115624633 0  0.6803878781969045 0.7035160631177291 0  1.32373046875 1.25048828125 0  1.32216796875 1.41767578125 0  0.5499851861317793 0.9439128053349233 0  1.022629866909724 1.040850270203209 0  0.5745442708333333 1.417645342938312 0  0.6210905905518814 0.07817000059074161 0  0.8251326424747147 1.051763251304391 0  0.9840195129520318 0.4094589843317338 0  1.335304710332526 0.8922471458140904 0  1.056578658899854 0.8909713350312058 0  0.6311277392046407 1.158870891931624 0  0.08048866130562571 1.097266504752301 0  0.7899471681381695 0.5900550615276262 0  0.787583911300231 0.6744258112570235 0  0.9253568605083915 0.6931779950154204 0  0.6069241236579608 1.236016193461046 0  0.9754544598564333 1.105608345312828 0  0.5891224709431884 0.6993621756793521 0  1.20518939408778 0.7458807514137317 0  0.7661039078070937 1.202429845202379 0  1.160750676252366 1.424456431149488 0  1.07906062607374 1.432028171475168 0  0.3800251736020173 0.4214243130004857 0  0.9386398271504294 0.6156244973145778 0  0.0625 0.234375 0  0.203125 0.2933407738095238 0  1.215434655272782 0.5908176357312523 0  0.3862873976850203 1.253958025454808 0  0.9642783311550196 0.7603191879845486 0  0.07907187269262334 0.5337704210040105 0  1.05323270401054 1.338218592033867 0  0.7809244217906405 0.07297738156489482 0  0.8538188665025647 0.1992768958275427 0  0.9002757663302332 0.06810835486946346 0  0.3896574912364178 0.6177519597715768 0  0.8312147565658268 0.4504658003252042 0  0.6060876899209792 0.4769383705177015 0  0.6973120163099531 0.973865749266754 0  0.2220506518942812 1.34123409472246 0  0.2016535060668421 1.419937676612376 0  1.067204461774397 0.7475876083618238 0  1.126113744622621 0.8622904019182541 0  0.3283697934586307 0.06033102762239553 0  0.3141768357227177 0.2102768223058998 0  0.8836591735735614 1.110539499889141 0  0.9335121559963067 0.9650712587476813 0  0.489881977219376 0.3554687673286838 0  0.1635028372004782 0.9601830799237989 0  0.190064339368102 1.055218085849877 0  0.4693032589410306 0.1089149617768512 0  0.826087350728517 1.388004148744978 0  1.071391321568866 0.357735705332231 0  1.056880377786583 0.2807740346831144 0  1.3359375 1.1015625 0  1.4296875 1.1484375 0  0.3906148988360577 0.9415494491776595 0  0.06145603826933142 1.359375 0  0.06985309644022948 1.2846420920388 0  1.438543961730669 0.140625 0  1.43014690355977 0.2153579079612006 0  0.161811455697184 1.281243264907209 0  1.2989767800824 0.08251937661177217 0  1.282654529021692 0.1634516867188552 0  1.343324227095839 0.2175851507697937 0  0.5747241214300347 1.087143402580354 0  0.1502172474800126 0.06370164366342397 0  0.07677312842259779 0.08704698619211086 0  0.06709364565267519 0.1592134266688963 0  0.1305803571428571 0
[...]
<PointData  Scalars="f_11033-1"> 
<DataArray  type="Float64"  Name="f_11033-1"  format="ascii">6.0722986836910026e-05  2.7893757216344106e-09  1.5087195924171951e-08  1.9859545101031813e-04  6.1524321982906298e-08  3.4028834313450268e-06  7.3397795281252544e-05  1.1487496604202227e-04  7.3208662462576665e-04  1.0880187627375777e-04  4.6766847387079213e-08  5.6512547576601531e-05  1.0678162002698413e-04  1.8019306607028755e-08  4.8529586212649433e-08  1.0449540031797482e-04  2.8546816514138363e-04  1.8606206641895167e-06  1.3414203929679674e-04  1.9833585756517128e-04  3.4719382725779962e-04  4.7422898349425445e-04  4.7253164331114523e-04  9.6452292151338187e-04  4.9822245912771327e-04  1.1687234071617629e-04  9.7906526296121979e-05  8.0455245893079922e-07  1.5717863647980461e-06  3.6932514358731338e-08  9.3625811365761211e-05  1.3017380472929706e-04  3.4786545135759170e-04  4.4120693618904987e-04  1.4842244616607657e-04  5.0139679583253776e-04  5.7875671511325732e-08  8.7840773188476665e-04  6.4660156376664720e-04  2.0801815084681618e-04  7.1280578698885231e-07  3.1689052079611010e-05  6.3054307791538294e-09  8.6492334740074592e-06  1.9772120919230108e-04  3.0836399263150063e-04  1.3388386897436591e-04  1.1157668653306307e-03  6.4209481917644701e-04  5.7812332320626020e-08  6.2030130303539460e-08  5.9393804233896593e-05  3.2137260006040439e-08  1.8386668427303417e-07  1.1469480355221339e-04  1.1354458502342049e-04  5.8260398679853895e-05  1.5898681693536260e-08  8.9381279823211630e-05  1.5448209470435249e-04  2.7657958675731925e-05  1.2201509462600899e-05  2.0127806015492707e-04  3.2732739210362960e-04  1.0967807191501130e-04  1.9005357197975062e-04  8.3768547673187564e-05  2.0109547953586039e-07  1.1485294088200228e-05  7.4529570899490455e-04  2.4455960479677873e-04  9.9301754138882164e-06  1.9315502988785034e-04  1.1151930403412385e-04  1.7048779220977853e-03  1.4521870676223909e-05  6.0599753101772474e-04  2.7791720970858370e-04  3.7085981057523044e-04  4.7284912573757753e-04  6.4660876072352879e-08  1.3477741923295975e-04  1.5274465473567076e-05  1.2283396813494071e-04  2.9457359969567361e-05  8.7515930002537775e-08  9.8915967229640426e-05  8.0661056244291321e-05  2.3628477419903132e-08  2.7173854117556257e-08  4.0188069458617169e-08  1.0407861962096020e-04  1.3942393356527368e-04  6.0970121917696232e-08  4.4583050020061420e-04  2.4550857025939277e-06  8.3986772449481297e-05  1.1466301528349835e-04  2.3431286474540179e-05  7.2712952816502555e-05  7.0226350758954685e-04  5.8421737622868497e-04  4.9789675771371616e-04  3.9162738987100776e-07  1.0903858316252484e-03  5.7301602065419253e-04  1.1384545816210941e-04  1.4268519389244253e-04  2.2547934627812011e-04  1.2450114259340928e-04  1.1494631760533719e-04  1.2475099569774848e-04  7.6112933356975313e-04  7.5669269221029863e-04  1.4418389697892358e-04  5.4830169973783642e-04  1.3863130915741778e-05  5.8452036328057939e-04  3.4061851712237937e-04  1.7158682535090873e-04  7.2531777921388507e-05  3.2295086687838479e-04  8.5006054834949572e-04  2.3275479576076428e-05  2.1351558913544958e-04  1.0115058708600643e-04  2.1374738685052408e-04  1.1380472980268693e-03  1.0021777925832606e-04  2.3243232994667187e-04  5.7894927420270653e-08  7.4706622199083989e-05  5.7026852253256319e-04  4.9425291341379051e-08  1.0385063064302956e-07  5.4639495300599537e-04  2.0027399496178028e-04  7.3592048108548117e-04  9.9504031067088636e-04  2.8084189799486780e-07  2.0002463476174040e-07  6.2190288176947858e-08  7.3668807496267085e-08  1.4051118110160117e-04  7.2818846007024357e-05  2.5667275892858431e-04  5.6832121437862617e-04  3.0783257585568477e-04  1.0677031050845456e-04  3.9491812477011230e-08  6.0264499327554765e-05  1.0855380784173928e-03  6.0325651465241990e-08  4.2228860630374689e-04  4.6720169319909837e-04  7.4103453477555176e-04  1.6457759274336625e-06  4.5631648179934655e-08  5.3947705812786257e-08  5.1152701428904178e-05  2.6588335301745990e-04  3.3336416967804050e-04  3.8063806814987874e-04  2.1699119247909223e-07  2.0605294418487598e-04  2.1641156202449598e-08  1.5301171191191467e-08  6.0382932588246338e-05  7.5258711327265838e-05  1.1567094012930925e-04  1.9567838228724753e-04  1.1988809911430016e-04  8.0418288814387737e-07  1.8794254572861239e-04  5.2008047820621651e-04  2.9981975862835959e-09  5.2746376439847046e-08  3.7269600168426834e-04  7.1072069999511371e-04  1.7617239708111871e-05  2.3347504334807643e-04  3.8530229702126237e-04  7.8619066349483609e-04  1.0905770671048370e-04  7.1987470030483467e-06  5.6738358439732632e-05  5.8480834311567758e-05  1.0755308052961225e-05  6.1500099087448401e-05  4.1673177447626226e-08  9.1441265743678085e-07  4.0420900300505733e-08  1.6103992028116290e-08  6.0261608872160585e-08  2.2912759808784507e-08  8.5965199904464179e-05  1.1451111628716528e-04  1.1135056320414246e-04  9.9292492114962154e-05  5.8892695139320093e-05  1.6127825972395233e-04  2.9585104004279929e-04  1.3668288644479767e-04  1.1360214465823889e-04  2.8882453930216377e-04  1.1352675442765960e-04  1.1736758990349019e-04  1.0342569086133317e-04  3.4535647785777084e-06  2.8995873729630348e-04  1.1817558434892068e-04  1.0203092181549074e-04  3.2608440264472723e-05  8.7996759871496843e-06  6.0614341096223371e-04  1.2408245027234056e-03  5.7896347983070594e-08  1.3068973288674600e-06  4.9347471783094056e-04  1.0832230393188577e-05  6.9575613483186815e-05  2.9339197881764406e-07  8.5328473701771487e-05  3.7390443126743764e-07  5.8385292290782074e-04  8.8066035596930155e-05  3.3805882454875102e-04  3.0644437544974585e-04  1.3831115813251024e-04  5.8484986820905098e-06  2.7045007745470899e-06  8.0877021966302648e-04  3.7568931360225453e-04  3.5134128772547563e-04  3.3320883483152670e-04  6.4138452411530275e-04  7.1342280957754575e-05  7.7558083116796839e-08  6.2587239530098181e-04  2.7344854652237466e-06  6.5368216902340993e-05  3.8872297435379939e-04  1.9043355164637739e-04  1.0842788990862797e-04  2.7105484333633779e-04  4.9347253372968914e-04  2.4366614899368552e-04  1.3161463725521342e-04  6.7209982676011198e-04  9.0576899940168982e-04  3.7958894172779519e-05  3.0941378569419696e-04  3.8479144275891498e-04  3.3096592020529262e-04  1.1078444015078883e-03  9.7713204882995678e-05  6.4754230925989013e-04  1.8495777691008872e-03  5.9014348573341279e-06  9.5421154452756825e-05  3.0508426103332490e-04  1.2269070354739147e-04  4.4483578609731049e-04  6.2551423997189086e-08  1.2221211622897519e-07  5.9223698284339250e-08  7.5704192713634596e-04  3.4855995049460293e-05  4.2293884096939626e-04  5.7448865557504873e-04  8.2760668983588646e-05  7.0242092579392241e-05  1.4072346514187493e-04  2.3094506147119576e-04  2.5773121490470216e-07  1.7905161548305174e-04  6.1369880386023064e-04  6.9320660148113338e-04  3.2517785800810430e-04  1.1348494843494747e-04  1.1041397317824196e-04  6.1023736771578024e-07  1.5914747709372943e-04  3.4656296811053115e-07  9.7166478467387524e-08  2.4964657351864866e-04  1.7472164092945905e-04  1.5732055202093175e-04  8.2178514526685118e-05  9.2513364166554510e-05  1.9618804160684091e-08  2.0825976652892013e-08  9.1640943792541606e-05  3.3362996437896537e-08  3.4109169011508592e-08  2.8192025300272177e-08  2.0331673102767580e-04  2.5413984687960210e-07  -2.3113292516529351e-07  2.0963880775740770e-04  2.4163844591170692e-03  2.2844779979757094e-08  6.8748174032072647e-05  1.1002472410520610e-04  9.6722450945486247e-05  5.4238652088361949e-08  1.8161880459008716e-06  2.6072015945647354e-06  6.2248066317835315e-05  1.0071978728329342e-04  5.0609212007858811e-04  7.4515867530368265e-04  7.9987216712359586e-04  1.5018748151363157e-04  2.5127589890849402e-08  4.5609759911718208e-08  1.0386925823881919e-04  5.8735632759596296e-08  2.6076729199909625e-04  1.1378679173996067e-04  1.0653083756586551e-04  2.0861786796242957e-05  1.3893155312224293e-04  5.3818324340858823e-04  1.0493180095598368e-07  4.9777800034097892e-04  2.1122977786826765e-05  1.0202883299607679e-04  5.4056396627689171e-08  7.0679316412972819e-04  6.6767159984374238e-04  9.3596838634066268e-08  7.7576082741635670e-08  2.9155188402042104e-06  1.2054316144879578e-04  5.7830971111397072e-07  1.2529764953221351e-04  6.4232540564098693e-08  2.7393587965073523e-04  3.1833664304250548e-04  4.8857866367499477e-04  4.7085567241094164e-08  7.6166475848398163e-05  1.1479172796290260e-04  1.1514964812801242e-04  1.9892467124416935e-05  2.5112147838076860e-05  9.5711838190457108e-04  5.6053888650478301e-08  5.4015974246687489e-04  5.1267219074127068e-08  5.5785307996474762e-05  5.2122615862667697e-04  6.2132104165866803e-05  4.4573378184468570e-04  1.1306170207566689e-03  1.5439095226808524e-03  1.1258315902843460e-04  1.1507917738957520e-04  9.0570304044499740e-06  2.4757673774254526e-06  9.8748149720336888e-05  6.8987096481951465e-05  2.3563788502233747e-04  2.3420755757914082e-04  6.7367422908218218e-05  4.4018142363788782e-06  3.5470571094521619e-04  5.4161576565968210e-04  8.0488993393257701e-06  2.0365274690063695e-04  6.3026755298310625e-04  4.2464404679861783e-04  1.1415216013766046e-04  4.3841416429368779e-04  9.2354717777690790e-05  7.5939974525773921e-04  8.2690375905745018e-04  1.3713535526935246e-04  3.2913390842502721e-04  1.4513575194627284e-04  9.3572450840402838e-04  7.2292061246188324e-04  4.5345667905181459e-04  9.3927737435890496e-04  7.6392413803536988e-07  8.6935087941884170e-07  1.7600044795301542e-04  1.0348937834581515e-05  4.6143607616028844e-05  8.1312269080482475e-05  1.6496052323020696e-04  9.4198158132739653e-04  3.7332868058537704e-04  1.2619662339809559e-04  2.6082931620875863e-04  1.1607094710491571e-04  1.5576026431436888e-05  4.8845252568258077e-06  3.2030956471857302e-04  1.9801424707349766e-05  1.3399604844304270e-04  2.3222759873216720e-04  7.4622419807638215e-05  1.0464422656279266e-03  1.7322440174634314e-08  3.1432043583706150e-08  1.4106567621096505e-04  1.1937276715479610e-04  1.1435110185615993e-04  6.2527224738694520e-04  2.2514085060448407e-04  1.3567774890505826e-03  4.3979407289939721e-04  5.7430996226051730e-05  8.3804880446530707e-04  7.9197729389330414e-04  4.9064777323501896e-04  2.0698005643704181e-04  1.6509976681295370e-04  5.5203693032654486e-04  3.2812498329865344e-04  1.8241140398953537e-04  1.5947384366529952e-04  2.8330368925370467e-04  5.4692121487641377e-04  6.2188506549289905e-04  5.6543917573055667e-04  5.6772703659393533e-08  6.9965334858330760e-05  8.2961282500383648e-05  6.2383215297641723e-05  4.0129842068840133e-08  6.5348328114925628e-04  8.1931285855942075e-08  6.0629716258355779e-08  4.3924814778876559e-04  4.2122003045275098e-04  1.7111133656164820e-04  1.0742392692728565e-07  3.3091239826143707e-08  1.4867848547659208e-04  5.8824340644861251e-08  1.1097032551010135e-04  6.8064307350760916e-04  5.0983858566482787e-08  3.2757183259784627e-04  2.9627951040607769e-04  1.0570658792608948e-03  6.7285480100093427e-04  8.4961117836177188e-07  2.6725540308339375e-08  1.0537235123932367e-04  1.1630911188681621e-04  2.3962788346855272e-04  2.2825183568755302e-04  2.9680754035750636e-09  4.0828187310419434e-07  5.8675808057739566e-05  1.1564162038547239e-04  9.1256655877004831e-04  1.2190106708152618e-04  1.6243532385176265e-06  1.1847060512186090e-04  3.6518909453490771e-08  3.7808917814366203e-08  1.3191322067134342e-04  3.7573746263830268e-04  6.9338840439515264e-04  5.0223449571990420e-04  2.5282156229345622e-07  9.1038928009990025e-05  4.9856188380397132e-04  4.4854080923953159e-08  2.7129345596958810e-05  1.2212007233917851e-04  5.4483843411663986e-07  2.8158450770469504e-07  9.4173005816322534e-08  1.6282139948004439e-06  5.8646692078979568e-05  4.0197045726724444e-04  4.5132790574207586e-04  7.7016405029538889e-05  2.7608439065978713e-04  1.9171338105388290e-04  2.2048372837926575e-07  5.7057514571411528e-04  6.7727894983852350e-04  4.4313153812394301e-04  5.4460522312024307e-04  5.9187002964063585e-04  6.3568129727755167e-04  2.1965070498708680e-04  8.4442526999769066e-08  4.0905075400112060e-05  5.3701663543400062e-05  5.1483426996506900e-04  1.0567235041445136e-04  4.4531980505508256e-04  1.4190724263428178e-07  1.1168947671317057e-04  1.6401053428627364e-08  1.6505774551229722e-08  1.9631271655647513e-08  6.7972589941411971e-05  7.7821288008654273e-08  1.0790584344668410e-04  1.0956976546837016e-04  1.5892704967956000e-05  3.7809386420785613e-04  3.0529164651799445e-06  7.2482305358132946e-04  7.0884676481639138e-04  1.3205849824539009e-05  1.3693719265150982e-04  3.0043013023735901e-04  2.6423461968288518e-05  1.0984489452558566e-04  6.4614532332585864e-05  6.4140904163742852e-05  6.3540217819351108e-08  2.0332064655294044e-04  1.5980698674112216e-06  1.2118163223165980e-07  5.6151179179560524e-05  2.6390559481281091e-05  4.0368519479838530e-04  9.9241602244627033e-05  3.0137437797411856e-04  7.0278815431934374e-08  6.2222522367400316e-08  1.2427957066743118e-07  5.3947967121465394e-05  7.8789349805570704e-04  4.3459556235054598e-04  6.0000121474733736e-05  2.2498868173711147e-08  2.1747727178932754e-06  4.7973328655899838e-06  5.0011119503895826e-07  2.5800325537588003e-04  1.2370149343785900e-04  2.0778294627649517e-04  8.8411715516333429e-05  1.4985624824822088e-08  5.1431830540312024e-09  9.6670822879297582e-04  3.9712176756855207e-08  1.4191417482116941e-04  1.8206141018675299e-04  4.9454200978043802e-05  3.6759532656279760e-04  2.6856630302401130e-04  2.0493376016794215e-04  2.2287975328720490e-04  3.3684186965529948e-04  2.7338100410732878e-05  2.4401384360534864e-08  8.8193825845563851e-05  8.7481238164350734e-05  2.7660706919365390e-04  1.8612420217851056e-05  4.1858823513318724e-04  2.8133430895884033e-08  2.5021345241350851e-04  2.3092437215022328e-03  2.3381002774907787e-04  1.7906869280394991e-08  1.0185312444215686e-04  4.7356065234864026e-04  1.1437637337464117e-04  9.0853040795505719e-05  2.6113010497634629e-08  7.5582342020370178e-05  7.9377711329572145e-07  7.7473430781377535e-04  2.4293305142338253e-04  6.3485209289204476e-05  1.0501914190434464e-04  1.4326819005116290e-04  4.7200147656526175e-04  4.1293893063254472e-04  2.0468780787836574e-04  2.2871052165336422e-04  1.0375128686990346e-05  1.6843003854867918e-07  6.4952976496211593e-04  3.7042445325971140e-04  2.3451099894865451e-04  1.3495572162663482e-07  1.3480301560783622e-04  7.5625713067536504e-04  1.5581561982375562e-04  6.8545924988964459e-04  1.2903497398598476e-04  1.4634891269677213e-05  3.6574552869845519e-05  6.9391842139821548e-06  1.1229580664078070e-04  9.7526438490818702e-05  1.1597632592697110e-04  1.4661538991731630e-07  2.8782616592024303e-06  4.8740725416655916e-06  1.2208607339854248e-06  4.2248103231226176e-07  1.1903924180133668e-04  5.0259119261445329e-04  6.1403773771144163e-04  5.1277182398013929e-06  6.2318204021016226e-08  3.1012511089767246e-04  5.6872788308356818e-04  1.2958028191029742e-04  1.1248649865602849e-04  2.9133299698585642e-08  2.9622033768654423e-04  3.1942062337263834e-04  5.5235774983509556e-04  4.5160960687716707e-04  4.0271222943555118e-04  3.7860439590887003e-04  4.3549968093636128e-04  6.0979106439632632e-08  3.1794552249586383e-04  9.5139795932324808e-05  1.6046610208059061e-08  1.7082598310856379e-04  1.0064436690006154e-03  7.8075914354847151e-04  7.1469251938010420e-04  3.1628751751531722e-04  1.5966749297154006e-04  2.1940343297885246e-05  2.0913840293229754e-04  3.1057564063664860e-04  2.4579086908976970e-05  9.1320083371036942e-08  3.0560792704420999e-08  4.1047172535643398e-08  1.5511234259321898e-07  8.7469446594017032e-06  1.5180012377688148e-03  8.0917441865661183e-04  6.9460895658444120e-04  2.7072138997978252e-06  3.8346745279318763e-05  5.3623583317945471e-04  5.3895771635928036e-08  6.2586542107310160e-04  1.8267647373109534e-04  1.3424355447125271e-05  4.8288250029119446e-06  9.3835835643702251e-05  8.4672328872259861e-05  1.1500297579475290e-04  1.3231002060866930e-04  3.6415981241105814e-05  6.1926517060131535e-08  2.8576313180015344e-04  3.2282214821610129e-04  6.6490992317283623e-05  6.0389545611430331e-05  8.6006908253764559e-05  1.1263477528495741e-04  5.6326944218048552e-05  4.2229853947507228e-05  5.1488306997254653e-08  5.6125124956518713e-08  1.8554563184862761e-06  6.2002016013180199e-06  1.7403303920966945e-05  1.1487470232172583e-04  1.1493978347162975e-04  1.1474182994633090e-04  1.1296779936147350e-04  6.0960635291084393e-08  1.0360057947620024e-04  4.4670947895321068e-08  6.0057289395138141e-05  4.6612029403427868e-09  1.5833800680251651e-08  8.3596872409418257e-05  3.5764279463748105e-08  5.9260437225274328e-08  7.7254899960070379e-07  4.6924291094012115e-05  2.5419193699080842e-04  6.6738272254306255e-05  2.0731193040504398e-04  2.0773218019682767e-04  2.2089054375433638e-04  1.1409933964246790e-04  1.2086217328841007e-04  1.0616608022705952e-04  5.6867284508021671e-05  8.2544150331887741e-05  1.8156819710954739e-04  1.0865500143671556e-04  9.9668047011620044e-07  2.5165056705793552e-07  4.2691092972238823e-06  2.5924506407594785e-04  1.2786571140360331e-03  9.0157222987693943e-04  1.0220638271659160e-03  1.8394811709765107e-04  8.8362440208445678e-08  1.3550855631104202e-04  9.8740582830018642e-05  1.6412918439356449e-04  1.1420461453993446e-04  1.1357744699469152e-04  1.1281162280184673e-04  1.1511712777898672e-04  3.9644849634432945e-09  2.1308842494541637e-04  6.5332753797506238e-04  4.2541531189820248e-06  6.4349587317207209e-04  1.6311653233029904e-05  1.2130548903664230e-03  6.2931546811860592e-04  1.6271215685529848e-05  7.9916481440086445e-05  1.1399328038847737e-04  9.4188302043730064e-06  8.7080405913896551e-04  2.4677542651985678e-04  8.9950755475408581e-05  1.8407232137766712e-04  7.5564164563231570e-07  6.7442086605020183e-04  8.6454432318263112e-04  9.0162762629329653e-04  2.0392459775908096e-08  4.9020758128719641e-08  1.5892703903855229e-06  7.9834733803697492e-07  8.0542014733324483e-04  7.3149639487452430e-07  1.1797477177221752e-07  6.6247391302973305e-05  2.6945533797337247e-04  2.9005073177314225e-05  6.4214550007483159e-04  1.2096874052939095e-04  2.9836574331233679e-04  4.1817782160944421e-04  1.3978987502257350e-04  7.7019791844126960e-05  1.1913209427424226e-04  5.1132918061506785e-05  1.1453719276014509e-04  1.2554242986055286e-04  1.1144032093999500e-04  1.2193145620230760e-04  1.0487797012355363e-04  1.0690959444161200e-04  8.5815367309894364e-05  4.6521867784614867e-04  4.5082784074914451e-04  9.5684959408188369e-04  7.1374204046430235e-07  1.9241584607791839e-07  4.4739557061879560e-04  1.5769017733327132e-04  9.5971780284773690e-05  1.1190359348070530e-04  1.1655617783360282e-04  1.1462048382977161e-04  3.2394918694084797e-08  7.9326304872754896e-05  8.3405863882663570e-05  9.1583878455022774e-05  8.5799505412114961e-05  2.9606730513397241e-04  5.3605489412594852e-04  9.6930305617004477e-05  8.5523371036486204e-05  1.3871077430878832e-04  1.2330739986659970e-04  1.3131755754577931e-04  1.0169545700215819e-07  1.1911399516370411e-04  3.8450673651693664e-04  4.1741873173221388e-08  6.7657976842534807e-08  3.5611279008358862e-04  8.4445947726352502e-04  4.7395666633271738e-08  4.4558784059472837e-04  4.9228629196956656e-04  5.0570055084101591e-04  1.7418215032656328e-04  2.0043315522726329e-07  8.2044756037223172e-05  6.4455488268596404e-05  1.2569020819229340e-04  1.5418897440788794e-04  3.3130950992768039e-04  1.4329987387770072e-04  6.0260797762659341e-04  6.1374584056968651e-04  6.0501533326113059e-04  2.4438480562179537e-08  1.5710060706181824e-04  6.1805503949767383e-05  7.6873380185514927e-05  1.0263328289421110e-08  8.0569646534258871e-08  6.3402513346457899e-05  3.6110363339990307e-07  2.4435722130239040e-08  1.2311442810682344e-03  3.8840802710968632e-04  5.7684162261508288e-08  3.3066369576785688e-04  3.1290438987827819e-06  3.7387777583597623e-08  5.0248909089310560e-04  7.8189262149645775e-05  8.5587104128176871e-05  8.9364236109699101e-05  7.6210918724736577e-05  3.2748077887994204e-04  4.5032392459805153e-04  7.2685309044164936e-04  5.279023