<?xml version="1.0"?>
<VTKFile type="UnstructuredGrid"  version="0.1"  >
<UnstructuredGrid>
<Piece  NumberOfPoints="6486" NumberOfCells="12696">
<Points>
<DataArray  type="Float64"  NumberOfComponents="3"  format="ascii">0 5 0  0 0 0  5 0 0  5 5 0  2.5 0 0  5 2.5 0  2.5 5 0  0 2.5 0  2.5 2.5 0  0 1.25 0  1.25 0 0  1.25 5 0  0 3.75 0  5 1.25 0  3.75 0 0  5 3.75 0  3.75 5 0  3.541666666666667 1.458333333333333 0  1.458333333333333 3.541666666666667 0  1.875 1.25 0  3.75 3.125 0  1.284722222222222 2.326388888888889 0  2.683189655172414 3.767959770114943 0  0.9375 0.9375 0  4.0625 4.0625 0  0.7252209595959597 3.026357323232324 0  2.763480392156863 0.9129901960784315 0  1.875 4.345238095238095 0  4.345238095238095 1.875 0  4.192708333333333 0.8072916666666664 0  0.8072916666666665 4.192708333333334 0  3.368055555555555 2.326388888888889 0  0.6837606837606839 1.738782051282051 0  3.285485245626782 4.324328415208927 0  2.551239698778062 1.693130150610969 0  1.827256944444444 2.868923611111111 0  3.464875022477093 0.6813924607921316 0  1.942880513719175 2.059558626187995 0  3.04563492063492 2.971230158730159 0  4.375 3.4375 0  2.13639445139758 0.5994472256987903 0  4.272228422619047 2.606956845238095 0  0.625 0 0  0 0.625 0  5 4.375 0  4.375 5 0  0.6400043240752655 2.384646170113389 0  1.347691225855598 1.660875475110776 0  3.515783617857982 3.723905460714006 0  3.125 0 0  1.875 0 0  0.625 5 0  4.375 0 0  5 1.875 0  0 1.875 0  0 3.125 0  1.875 5 0  5 0.625 0  0 4.375 0  3.125 5 0  5 3.125 0  1.489644181965304 0.6007147273217681 0  2.054597701149425 3.742302955665024 0  2.662520990197781 4.39452575763237 0  2.415835363784578 3.165530021913244 0  0.8679986894865213 3.602373689486522 0  1.267459753787878 2.886186079545454 0  4.099702380952381 1.365327380952381 0  1.316964285714286 4.438244047619047 0  3.7915135293491 1.959691594758709 0  2.875141124191255 2.118761176511833 0  3.00418010501169 1.397414179299248 0  0.4081721322167092 3.410647930198662 0  0.4166666666666666 0.9375 0  1.014190407998288 0.4422301359994293 0  1.383260571305984 1.162718286082048 0  4.53125 3.90625 0  4.453125 4.453125 0  3.772848162504192 4.48678272083473 0  2.8125 0.404329517041716 0  0.4538690476190476 0.4538690476190476 0  2.305461739347387 1.04517007574828 0  3.771263799175824 2.624190260297553 0  3.229617768018734 1.809956994202883 0  3.780190884441317 1.025307111692601 0  4.646337365591398 0.9375 0  4.537623451379149 0.4609485750426037 0  1.200477888421151 3.934852888421152 0  0.3536626344086022 4.0625 0  0.4623765486208503 4.539051424957397 0  4.0625 0.353662634408602 0  4.560525106689535 1.390989100915847 0  3.958439078571988 3.619844539285994 0  4.672619047619047 2.1875 0  2.1875 4.672619047619047 0  1.862808494877602 3.325947624431087 0  0.3268135998175443 2.8125 0  4.674181280189791 2.8125 0  2.283233994935276 4.138623547175983 0  0.9375 4.677879119362977 0  3.08488061581743 3.469889594488945 0  3.113427375573758 3.913955730709506 0  1.652847799068813 3.950848935641292 0  2.932652662909449 2.550542739521724 0  3.311350648514189 1.088831994878698 0  0.6770833333333333 1.295851139601139 0  0 1.5625 0  1.047214787840024 1.96818092308125 0  4.183331482095785 3.03958703580843 0  3.4375 5 0  1.071307777252521 3.246275861010018 0  0 2.1875 0  0.386576856303419 2.03125 0  1.713862716483534 2.439783116849799 0  1.775396256975935 1.665976816304977 0  2.231236976948428 1.443917394671254 0  2.373900732409897 2.086930260150635 0  4.114918237574474 2.221646174618671 0  3.661302567757379 4.099620139144836 0  3.378215938602977 2.734494874063393 0  0.9842097536079312 2.597286741306247 0  1.642795138888889 4.672619047619047 0  4.0625 5 0  2.099458800960004 2.567446522665629 0  2.616202751603346 1.297895893940078 0  5 4.6875 0  0.9937554350075428 1.512592975947215 0  2.8125 5 0  3.002695327068194 4.614055254615477 0  3.205627424097207 0.3852436382721472 0  1.678616581261621 0.927556612265266 0  3.365326698305438 3.196943731162083 0  1.554834936170314 3.120009882655813 0  3.108408340729323 0.7797187795784133 0  3.684368918102174 0.3728877601163941 0  2.716214835303553 3.39276351922003 0  2.37718583984784 3.551973401560441 0  0.3750662445374837 1.52191994866787 0  2.679073487930202 2.844160731602957 0  1.557635869750078 1.991068682985722 0  1.812595698561088 0.3839273018252746 0  2.512014721281916 0.6320641118792227 0  2.1875 0 0  2.349973454443689 0.3189980586887866 0  4.6875 3.59375 0  4.636052949022233 3.178355898044465 0  4.6875 5 0  3.345485909784306 4.665765449101383 0  0.536727472389443 3.749603193819277 0  4.349541499640203 1.116201826262156 0  2.886559045931982 1.774013674579691 0  0.6770833333333334 0.7142857142857143 0  1.5625 0 0  4.120842096538671 4.628726497527622 0  2.176157474177018 1.793470423744689 0  2.175650736889416 2.909863021769539 0  4.036616464259081 1.709699085170981 0  3.887974623473683 0.6492597046022868 0  3.4375 0 0  3.70675699592552 2.289666624772415 0  4.697265625 4.208984375 0  2.815177577303495 4.085937578239174 0  4.672619047619047 1.730733296184288 0  4.6875 0 0  5 0.3125 0  0.3125 5 0  0 4.6875 0  0.3276089296588581 2.484526834811734 0  0.712433309515852 2.065138854645612 0  0.6376435912223634 2.711473454001295 0  1.184991292170422 0.7222504400947201 0  1.31884329779317 0.3206944232264773 0  3.683609198994263 3.44428698533042 0  0.3125 0 0  0 0.3125 0  4.231797269642997 3.789141808928991 0  1.564375596050781 1.425998687184973 0  2.007640894175573 0.9032106925568466 0  0.955125897558294 2.276666098587227 0  1.43898735721003 2.611310720271951 0  1.954491523717513 4.040700257877075 0  1.752947649777421 3.652439445419346 0  2.509575750247638 4.678021307664052 0  4.687194709705067 2.499965519538002 0  1.5625 5 0  0.9375 5 0  5 2.8125 0  2.1875 5 0  5 1.5625 0  5 2.1875 0  4.0625 0 0  5 0.9375 0  2.8125 0 0  0.9375 0 0  0 0.9375 0  0 2.8125 0  0 3.4375 0  0 4.0625 0  5 3.4375 0  5 4.0625 0  4.010848109290813 3.306446973933037 0  0.3077461147713075 3.119700563473354 0  4.6796875 4.6796875 0  2.333079012424948 3.845757959077508 0  0.7829771267899832 3.317744656243421 0  1.159100632608513 3.532487125138763 0  0.799066251840424 3.893573750162776 0  1.57326499580282 4.255438189102632 0  0.7309366047093668 0.2991402264438908 0  0.3054777494262156 1.223275888123843 0  4.027475154280377 2.78211326942427 0  2.35270874745988 4.426658168476266 0  3.474236283732569 2.021154281686229 0  4.401414236174444 2.329446628171927 0  3.39403781747337 3.987097102903034 0  1.077524329801934 1.214100792470484 0  4.065611571711903 1.066085524514197 0  2.165399002716117 3.335637450367864 0  3.007639563081306 1.093684039371638 0  4.030818285732145 4.351883315180857 0  3.504115222530889 1.739284194222036 0  1.224503368215566 4.712091441401919 0  3.805634204685714 1.321528442399996 0  4.319233123479386 1.573547993867769 0  1.024007670021325 4.394604704797005 0  3.776400432023095 3.839003324979723 0  2.991819819453308 4.320567175146181 0  0.9782797534072181 2.886406017887129 0  1.763835134082104 0.6602345487826022 0  3.765182288741625 1.631193038541544 0  2.267959593989681 2.345053543725764 0  4.412434895833333 4.168294270833333 0  4.4072265625 4.7255859375 0  2.791493971314009 3.11210833271929 0  3.408766223032414 3.469500900677365 0  1.915147569444444 4.725484476461039 0  2.070301968506271 0.2605666686358055 0  2.767932250651506 1.530295992695836 0  3.280065043173439 1.364863281105779 0  4.45101570110842 2.974157152713635 0  3.521928862999512 2.96990445010402 0  2.552921961347576 4.008414007169315 0  0.2682955376854191 3.657555015841003 0  3.084522868361304 2.310593316718068 0  2.669255823227708 1.939379494498064 0  2.615884629473921 2.238841231570381 0  1.405652091971449 0.8877813821442277 0  3.25151486618811 3.68536115104276 0  1.963741569810629 2.331207252264507 0  4.017297980292599 2.486269171379106 0  3.869168920841219 4.748188103831625 0  3.596868753579134 4.77342723825056 0  2.41262958240343 2.764128584995838 0  1.266750578673391 1.404747710001619 0  1.559243962241121 2.85146506328516 0  3.128799423834764 2.052081657715259 0  0.6770833333333333 0.9778025793650794 0  0.2083333333333333 0.78125 0  1.978224492765132 3.087074731032578 0  4.051448850909273 1.969392119104174 0  1.320577095006813 4.172234780971559 0  3.214261103850064 2.534397293281829 0  0.2635729089754111 1.779234736680035 0  3.510775680035133 4.460728640112889 0  2.603081405968802 0.2432579385496493 0  2.866341315154884 0.6662105505481998 0  3.000919221100777 0.2270278495648781 0  1.298858304121393 2.05917319923859 0  2.020292299736597 1.589794568392338 0  0.7401688396476035 4.470780315741533 0  0.6721783535561408 4.733125588707921 0  3.753712482075402 2.874301339727514 0  3.557348205914658 2.491958694539413 0  1.094565978195436 0.2011034254079851 0  0.9338148378011396 0.6833568465908735 0  2.945530578578538 3.701798332963805 0  3.111707186654356 3.216904195825605 0  1.341791111822685 3.293123262233967 0  1.632939924064587 1.184895891095613 0  0.6335477978936732 3.517393619499591 0  0.5576014611130192 3.210998966942492 0  1.564344196470102 0.3630498725895039 0  2.75362450242839 4.626680495816594 0  3.571304405229554 1.192452351107437 0  3.522934592621944 0.9359134489437148 0  4.453125 3.671875 0  4.765625 3.828125 0  1.055906321410838 4.14310472322957 0  4.795146539102229 0.46875 0  4.767156345199235 0.7178596932040019 0  0.2048534608977711 4.53125 0  0.232843654800765 4.282140306795998 0  0.5393715189906129 4.270810883024032 0  4.329922600274667 0.2750645887059072 0  4.275515096738972 0.5448389557295173 0  4.477747423652795 0.7252838358993123 0  0.2002829820452772 0.46875 0  0.4352678571428572 0.6956845238095237 0  0.5007241582667088 0.2123388122114133 0  4.672890923830735 0.2500902110494848 0  0.4308009280819452 4.783624996516437 0  2.104871305393774 4.438653689007242 0  0.2274454167838428 0.2274454167838428 0  3.446466574593436 0.4359605369011901 0  2.12354112127588 1.217588426759619 0  2.309175236825235 0.7888355970690434 0  2.556178570281936 1.054299163237582 0  0.578683248637
[...]
<PointData  Scalars="f_800-1"> 
<DataArray  type="Float64"  Name="f_800-1"  format="ascii">3.6314355864986471e-02  5.5566622547521378e-02  3.5586420281127219e-02  3.5374760953731758e-02  4.5638385236687833e-02  3.5566566907048347e-02  3.6000462563837939e-02  4.6007136897041216e-02  4.5629620317386752e-02  5.1032269943880396e-02  5.0694792615412272e-02  3.5885586178074635e-02  4.0926757623981382e-02  3.5567109439243447e-02  4.0594210562411817e-02  3.5596538023940499e-02  3.5942920998290676e-02  4.1414445356284385e-02  4.1799799153131811e-02  4.8173176435809928e-02  4.0610227163020360e-02  4.6678210576994367e-02  4.0876227229121272e-02  5.2048697325403528e-02  3.9180500131488188e-02  4.3876292002533325e-02  4.4556254137837668e-02  3.8618387877103470e-02  3.8188890712257999e-02  3.8776427742425366e-02  3.9305050778412572e-02  4.2158886916019531e-02  4.9050633619970314e-02  3.8649705441178558e-02  4.5443574582922114e-02  4.4492601009439470e-02  4.1715133091923810e-02  4.7859566011672801e-02  4.3421912412657984e-02  3.8101754066504519e-02  4.7103636683117171e-02  3.8487456092931437e-02  5.3219787269605592e-02  5.3544467494101813e-02  3.5616331405625833e-02  3.6061018331836392e-02  4.6472666917678346e-02  4.9788823110600060e-02  4.1074381999797648e-02  4.3073100793932236e-02  4.8144109028409293e-02  3.6193932967346680e-02  3.8069807257775742e-02  3.5540453592602911e-02  4.8513943018609541e-02  4.3465806099624131e-02  3.5972376169078717e-02  3.5576508564478998e-02  3.8748783323157940e-02  3.5973400293618375e-02  3.5570858742007841e-02  4.9724902321614556e-02  4.1007813835771588e-02  3.8366911234741188e-02  4.3372103939771568e-02  4.1544165190303753e-02  4.4465645720851474e-02  3.9158094062417756e-02  3.8207173517581572e-02  4.0430036311897073e-02  4.4138591491026939e-02  4.3601755136252002e-02  4.2316226712793677e-02  5.2287511322016242e-02  5.1649216947578000e-02  5.0116781190679673e-02  3.7482222334160917e-02  3.7575734112826692e-02  3.8071529887592895e-02  4.4366425367018417e-02  5.3730776580546223e-02  4.6442134492792816e-02  4.0539619675561384e-02  4.2709133956610766e-02  4.0449670076923037e-02  3.6967460559917203e-02  3.7416897962488455e-02  4.0204108008942738e-02  3.9664306807914405e-02  3.7748092293981378e-02  3.9319634269619388e-02  3.7287011673297704e-02  3.9757743462314123e-02  3.6864541904849647e-02  3.7296004854341418e-02  4.2668464441447555e-02  4.4742379760728708e-02  3.6858270183425107e-02  3.9407323138630372e-02  3.7190844415747687e-02  4.2271804208122175e-02  4.0355679313992546e-02  4.0157044217742036e-02  4.3898710896185363e-02  4.2339888511791636e-02  5.0844127361125563e-02  4.9774593569877762e-02  4.8121972420917307e-02  3.8883824850825727e-02  3.5959594590433679e-02  4.2983571250390679e-02  4.7255439779139208e-02  4.7936153800133850e-02  4.6260479204437037e-02  4.8596432139012914e-02  4.6733919140103990e-02  4.6159887892588326e-02  3.9107862320148602e-02  3.9696444028170436e-02  4.2111384184127687e-02  4.5602603451912228e-02  3.7227019770881734e-02  3.5966983146383677e-02  4.5963851351810477e-02  4.5194254545165749e-02  3.5571199599256288e-02  5.0097202994141346e-02  3.5991783288054163e-02  3.7505951834810550e-02  4.2759219497391483e-02  4.8965054335323922e-02  4.2158566396148373e-02  4.3512525456205764e-02  4.3168066629158244e-02  4.0817445639130097e-02  4.2494897431271252e-02  4.1744794313611416e-02  4.9926707852638613e-02  4.4652240674781074e-02  4.8373868325130819e-02  4.8410930802166866e-02  4.5569129131567521e-02  4.6879178698008436e-02  4.6214869455598009e-02  3.6838488005753615e-02  3.7025985278998731e-02  3.5958463301795481e-02  3.7252445224844805e-02  4.0923713167426080e-02  3.8138403100693510e-02  4.4112158200170115e-02  5.3169428900314952e-02  4.9424854150582988e-02  3.7540439004262280e-02  4.6950536675392111e-02  4.4398959462868960e-02  3.9414549676538978e-02  3.9996638337476291e-02  4.1830591625431096e-02  4.0779683356683784e-02  3.6790865230569125e-02  3.9614547935319613e-02  3.6843143734509774e-02  3.6812391949241123e-02  3.5585952004891390e-02  3.6356425263141763e-02  3.7484421869967172e-02  4.6056904426598197e-02  4.7743856619940031e-02  4.5141200967309468e-02  5.0959749975749757e-02  5.0415238132381093e-02  4.0866472306603251e-02  5.4483788824906343e-02  5.4768720852634546e-02  3.8658482040114545e-02  4.9419870800822156e-02  4.7637846579131032e-02  4.6886665822141384e-02  4.5544716725246993e-02  3.9814393411906242e-02  4.1360343734931512e-02  3.7254799716868563e-02  3.6802738429083839e-02  3.6008782907493798e-02  3.5959553111116677e-02  3.5575502852439773e-02  3.5967495412916391e-02  3.5546231059775585e-02  3.5549442593928067e-02  3.9330418429616675e-02  3.5588428226982993e-02  4.4345550757634487e-02  5.1953186042927819e-02  5.2283596615814318e-02  4.4728272652907873e-02  4.2195535915962638e-02  3.9567056573497066e-02  3.5583454046643911e-02  3.5603577198606136e-02  3.9561426618917664e-02  4.3488859908162550e-02  3.6650306297623621e-02  4.0585548527360772e-02  4.2701764686429750e-02  4.1842137336788189e-02  4.0385239958517380e-02  3.8947428283703435e-02  5.2791875988865478e-02  5.1129586825928358e-02  3.9499391149605802e-02  3.8292451255567773e-02  4.1718186455390362e-02  3.7946807473520937e-02  4.0132563340626863e-02  5.1549847101049331e-02  3.9288061006543154e-02  4.2616118180326977e-02  4.3575475831033855e-02  3.8607491810443734e-02  4.1578920301785879e-02  3.7160733719645116e-02  4.0355516265651176e-02  3.8273339238213806e-02  3.8458479311111536e-02  4.0280921687117902e-02  3.8647430163444983e-02  4.4443723636989146e-02  4.8621888128848927e-02  4.0511588338350488e-02  4.6536075484130801e-02  3.7906187974201359e-02  3.7064573932328433e-02  4.3731761644206321e-02  4.1809947800074077e-02  3.7038869728178062e-02  4.7360682712924387e-02  4.4574140809226045e-02  4.2478255603105829e-02  3.7772577824127782e-02  4.1524611905013512e-02  3.9916037599652059e-02  4.1306963160300490e-02  4.3297147870164338e-02  4.4968215260616139e-02  4.5183726249739924e-02  5.0066469704123012e-02  4.1392368924235763e-02  4.6986748824334734e-02  3.9521841403353436e-02  3.6968150234892298e-02  3.6830146424660766e-02  4.5190538838334918e-02  5.0721882637786882e-02  4.4576049819166554e-02  4.3125507481023950e-02  5.2767508824773067e-02  5.2902475566872671e-02  4.3616176156967938e-02  3.9365902882586033e-02  3.9260331227042325e-02  4.2770893502879895e-02  4.8896168923678297e-02  3.8108385700327110e-02  4.5213472088282844e-02  4.4135101107519406e-02  4.3587794340626748e-02  4.7761760198826372e-02  4.7576361221331159e-02  3.8019998662345483e-02  3.6973278052913172e-02  4.0598926977618598e-02  4.1402883261822274e-02  5.1321157499298956e-02  5.1929748999772589e-02  4.1218522172097753e-02  4.2974946394414668e-02  4.2807492684139720e-02  4.9142204295571812e-02  4.1898936233973560e-02  4.3128761853991587e-02  4.9427765222471588e-02  3.7444377546560277e-02  4.1296121626407507e-02  4.1500719944991923e-02  3.7783367115789994e-02  3.6531807048382749e-02  3.9385634269050653e-02  3.6369456822297037e-02  3.6502424079265190e-02  3.8056517267723987e-02  3.8759560033800558e-02  3.8829788381765651e-02  3.8254552855193066e-02  3.8461603897234971e-02  3.7648185582669545e-02  5.5505844425096852e-02  5.4231797949409369e-02  5.3719092360031556e-02  3.6872545421250666e-02  3.7034719508628265e-02  3.8228644412195922e-02  5.4512025752120725e-02  4.1775345013846388e-02  4.7168522387792212e-02  4.6416117850998986e-02  4.5427716545975785e-02  4.0066788868603827e-02  4.2487317979132695e-02  4.7012623846320725e-02  4.0386474946614175e-02  4.0119751799742656e-02  3.6567978001468666e-02  3.6461777955555295e-02  3.6507579652660167e-02  5.0941407651909555e-02  4.0800678609127256e-02  4.0789763771273899e-02  4.3332988480462464e-02  3.8148292895051686e-02  4.3290167452785321e-02  4.0825442366250540e-02  4.8997687349366388e-02  4.2564299219061345e-02  4.1828406147131340e-02  3.8195537558267684e-02  4.8791629297402675e-02  3.7756614130954706e-02  3.8989432071565140e-02  4.6926997772935693e-02  3.6457187022045853e-02  5.0403493422141246e-02  4.5787196161018652e-02  3.9002463336270256e-02  3.9540741921394736e-02  3.9658534465817928e-02  3.6635884155310161e-02  4.4344542929624385e-02  4.5374924083380175e-02  3.6201174600866755e-02  3.7542781685238849e-02  4.7775349144578150e-02  4.2447888300695513e-02  4.2322908595399840e-02  3.9029247961373657e-02  4.1195509133205514e-02  3.6210918997506704e-02  3.9513367121930418e-02  4.4347949644731488e-02  3.6819044617939257e-02  4.5483804657926043e-02  4.9939612657844502e-02  5.2055597034019248e-02  5.1470837472529583e-02  4.2340093390730818e-02  4.2837152273441523e-02  4.6624138105496607e-02  3.6199922162505477e-02  3.6204097426009330e-02  3.6585922209712379e-02  3.7052505525272936e-02  3.6042523126885016e-02  3.9735463057144274e-02  3.8486267262234308e-02  4.4490637215977902e-02  3.6655559737208951e-02  4.3348562683620619e-02  3.9242409966268967e-02  3.9435181167653578e-02  4.0549881494658983e-02  4.4819829543987069e-02  4.4147090885070808e-02  5.2552639414113644e-02  3.8265818891911628e-02  4.2873670171098402e-02  4.7153158573945003e-02  4.6071702176842984e-02  3.6597117182121004e-02  4.8672302489697929e-02  4.8534209212533902e-02  4.9506706424750739e-02  4.7906085705745574e-02  3.9786598792961668e-02  4.5350096126941429e-02  4.1764495983775789e-02  4.3474435715693385e-02  4.0215749960564373e-02  3.9047350930174883e-02  3.7328069110285640e-02  4.3677003802994274e-02  4.5566472278238776e-02  5.0823782501630430e-02  3.8143816609771800e-02  4.8696386525867878e-02  4.8684890145297574e-02  3.8249545695610919e-02  4.4059995398354153e-02  4.2492097919210943e-02  3.7223091872136030e-02  4.4973272393781960e-02  5.1945842211777893e-02  4.8113416429851938e-02  3.9929885459044821e-02  3.8592628012400113e-02  4.4036744305962862e-02  3.8731188424927898e-02  3.6938224442060685e-02  4.3581885535500763e-02  4.9431866254415223e-02  3.6161695930549347e-02  4.6121627225138052e-02  4.5758830697491919e-02  4.6302662400280206e-02  3.8041035348137707e-02  4.2250618754267048e-02  4.3605308949182138e-02  4.1255431711579305e-02  5.1021290596352166e-02  4.7250543731919691e-02  3.5910788506373678e-02  4.6036794521180924e-02  4.0417220418783220e-02  4.0542187737804360e-02  3.8076028772352499e-02  4.5082155877694992e-02  4.6215293297298649e-02  4.1065771116480930e-02  4.1472243840763277e-02  4.0430336579644378e-02  3.9736145506883765e-02  5.0052115129015043e-02  4.4251697098768146e-02  3.6592748429583266e-02  3.7590183345685181e-02  3.9273944104579905e-02  4.5525946794740216e-02  3.9947434423540096e-02  4.4406536322961210e-02  3.9454870313426753e-02  4.9750282324421004e-02  3.7387942243568471e-02  4.2080997014038203e-02  4.7174242840508682e-02  4.1029995167983974e-02  3.6533225460511104e-02  4.8971088435780949e-02  4.2401850919707891e-02  4.4380561298570292e-02  4.7922402592078785e-02  3.7442334776718537e-02  4.2541491829121765e-02  4.7296927151551822e-02  3.8047734825051721e-02  3.6808802120020044e-02  3.7670685800939761e-02  3.5961461672701547e-02  4.7590056155181616e-02  5.0054092199861761e-02  4.5307610965017973e-02  4.9632865640954246e-02  4.2010347581969740e-02  4.2953477668449432e-02  4.5801383543108490e-02  3.8705724957617538e-02  3.8944516465162594e-02  4.5031731026146292e-02  3.7809347845490074e-02  4.8273076586562221e-02  4.2993629126493210e-02  5.0668099747826274e-02  4.0069986809077487e-02  4.9437673680771038e-02  4.8512486582353270e-02  4.6304359456528929e-02  4.4884367402639985e-02  4.4891381784449888e-02  4.1684814825506761e-02  4.1004820531358205e-02  4.3146800152387373e-02  5.2028928945107959e-02  3.6050011361101253e-02  3.7743234466988247e-02  3.7662330176311543e-02  3.7735491349164388e-02  4.6421227886237315e-02  3.5972855724936387e-02  4.9584199200512574e-02  4.6924791335289921e-02  4.6295189707530410e-02  3.8817219059505179e-02  4.3936934822458092e-02  4.3868027098146321e-02  3.8787135655403232e-02  4.3448995052115871e-02  3.5537467646637746e-02  3.6941590719588871e-02  4.0286016356596746e-02  3.8652340219713428e-02  4.0687617403399934e-02  3.8582009901528547e-02  3.9683725455778224e-02  4.2704827385625546e-02  4.5935945381350665e-02  5.2587198785427614e-02  3.5575110906307425e-02  3.6256790188589558e-02  3.6649693919949711e-02  4.8083645909148869e-02  4.1255065351182091e-02  4.1615193158532848e-02  4.1136330135248110e-02  3.6814693754422090e-02  4.7681560953743277e-02  3.9113744681927305e-02  4.7744627643733613e-02  4.7599550781251811e-02  3.9753976312340698e-02  4.1559154309887526e-02  4.0064467979007368e-02  3.6535406145860691e-02  3.6578553363744104e-02  4.6677891357714080e-02  4.9079199326148300e-02  4.5034875082076861e-02  3.7148223129901292e-02  3.8274933311140097e-02  4.0866637976138404e-02  4.1511003675392767e-02  4.1004872771636308e-02  4.0333585552159087e-02  3.9662297369287010e-02  3.8473748803424364e-02  3.8719732789893220e-02  4.5853766427663929e-02  3.5564883409077833e-02  3.8882995312932482e-02  3.9051569531779663e-02  3.9867824573878011e-02  3.6201465058005380e-02  3.7154598981577101e-02  3.6295339687790328e-02  3.5565691363927267e-02  3.8763963549821756e-02  3.8671921289809390e-02  4.7199719896171888e-02  4.7073606072876209e-02  4.2443137684126310e-02  3.7936678081318294e-02  3.6620956969991229e-02  4.2087993387693250e-02  3.6190555268796540e-02  3.7388720953138180e-02  4.4801636368642442e-02  4.4258590546021603e-02  3.7095946338932720e-02  3.8389027964603327e-02  4.2059049931731020e-02  4.8279425916029163e-02  3.9943667399122341e-02  3.7602315160043309e-02  3.7556696358345236e-02  5.3497930945554863e-02  5.3538478427383560e-02  5.2487239602742743e-02  4.1120557360354061e-02  3.6185548948966986e-02  4.1508195167235584e-02  4.9142125602614772e-02  3.6205828698449412e-02  3.7529625827624265e-02  4.3453403041793688e-02  4.1971091808267753e-02  3.8919679926633581e-02  3.6169648663112453e-02  4.3479016449770300e-02  3.7560401893090234e-02  3.6244467266267046e-02  4.9399027934990507e-02  4.3911669745327606e-02  4.2404209884845549e-02  3.7508072449046984e-02  3.6176051210441693e-02  4.1817495662172764e-02  4.0859369187072420e-02  5.1073867259056431e-02  4.2989748961270439e-02  3.5598515382194780e-02  4.5311589539331822e-02  4.8056393768001117e-02  4.5111372818565407e-02  4.1991953428609036e-02  4.5799162031464787e-02  4.5442370442780530e-02  4.6930889640865697e-02  3.7539352807681912e-02  4.0574656574807785e-02  5.3189913691266660e-02  4.5147131884118119e-02  5.0253072466499980e-02  5.0665712342312021e-02  5.0169722111867210e-02  5.1371191076439920e-02  5.1400229759846025e-02  3.6193748570274291e-02  3.5545816056793016e-02  4.4668494201243712e-02  4.4264605596542481e-02  4.4790854247267420e-02  4.4514719742830978e-02  5.4010516961451809e-02  4.1279143332331410e-02  3.7056013575341648e-02  4.7514476977490810e-02  3.8023989411595197e-02  3.7570733344565066e-02  3.7315607355987220e-02  4.0218697043805290e-02  3.8131515279905735e-02  4.6952814538566472e-02  3.9107664011058217e-02  4.3915622274267228e-02  3.7770746367834597e-02  3.7269179026838191e-02  5.5078104718400113e-02  5.4818506842366270e-02  3.8880070905355779e-02  4.4982609511990561e-02  3.7019267866848032e-02  5.4254981286962163e-02  3.9203231173956229e-02  3.6124605115735210e-02  5.0015753668767975e-02  5.0147975752885231e-02  4.2070180734932842e-02  3.9182986206542127e-02  4.3047004993885522e-02  4.7053343525581048e-02  3.5950679195907151e-02  5.3109633058391538e-02  3.7858274434722609e-02  3.9325292244396549e-02  4.7754760075247725e-02  3.8437402158908465e-02  5.1655306541189286e-02  4.2477464929820866e-02  3.8777220533331026e-02  3.9594135075886522e-02  4.1160578627835988e-02  3.9270237255157429e-02  4.1814055074227308e-02  4.2918532486591367e-02  4.6218599905865014e-02  4.1515642005123123e-02  3.9936936347881272e-02  3.6829917543496168e-02  3.6153731545205486e-02  3.9034369735381817e-02  4.6000351549884501e-02  3.6591314834976491e-02  3.6173783865212888e-02  4.6258459817607400e-02  3.6053365579493922e-02  3.6004701181239995e-02  3.6042666545420404e-02  3.6855866335621788e-02  3.6265491809358362e-02  3.6042270900110786e-02  4.2827753296310493e-02  3.6071959175541242e-02  3.5577073356550880e-02  4.1214301900720986e-02  4.2452238158865778e-02  3.5559026781174854e-02  3.5571892878914220e-02  3.5573256572951469e-02  4.7886212000527895e-02  4.6630915260952879e-02  4.5371007952656452e-02  3.5977013107687882e-02  5.0407175189984985e-02  4.8792270484856841e-02  3.9958391234395881e-02  4.0280139712652763e-02  3.6287062982735492e-02  5.3849878260515564e-02  3.8138448934141977e-02  3.5586832842078510e-02  5.1323536593052096e-02  4.3712906957388685e-02  5.4116939249708257e-02  5.2909377154210284e-02  3.5939096894302330e-02  3.5593847640601743e-02  3.5530127932060472e-02  3.5743453272558762e-02  4.4099814514408364e-02  3.5978136387054140e-02  5.1662358957097983e-02  3.5593482982282168e-02  3.5626747167854661e-02  3.5579171106839232e-02  4.0393460507047868e-02  3.8368986585780557e-02  4.2951208982547971e-02  3.6596177447757117e-02  4.3826670424412628e-02  3.6725334096712893e-02  5.0800292813129186e-02  5.1050814334670895e-02  5.1958129591539247e-02  3.7581222140134686e-02  5.2271409132083793e-02  4.9043947688427514e-02  5.1328543696637086e-02  3.9822420571121168e-02  4.5884748447050788e-02  4.7052133137337172e-02  3.9222777670921562e-02  4.4115875635423546e-02  4.3528551413602658e-02  4.2962651680958676e-02  4.5367671892787412e-02  5.0520124941614078e-02  5.1681725564462107e-02  3.7470502847258488e-02  4.1064681203888252e-02  4.0422889569008566e-02  3.8167193433969258e-02  5.0209500525945021e-02  3.6238945332281433e-02  4.3708564383686706e-02  3.9585299288307979e-02  4.6892343607022914e-02  4.8401336726061110e-02  4.4185078460133448e-02  4.0016448083176080e-02  4.4018048110122977e-02  4.7584773513952634e-02  4.7058621764353679e-02  4.0220944245079278e-02  3.7164057852108537e-02  4.8738977212482430e-02  3.8298381342360577e-02  3.7825124663204195e-02  4.4223762972725872e-02  4.2105504962382641e-02  4.8745244209724460e-02  4.1691730881833713e-02  5.0386310356419765e-02  3.7564555998099249e-02  4.2500303261774598e-02  4.2156143575398354e-02  3.8903130260858045e-02  4.0150827829653526e-02  3.9898017614087462e-02  3.9067201535810107e-02  3.9170324525837033e-02  3.8722703802956907e-02  4.4760809301758318e-02  3.9550779971828279e-02  4.1662870470966770e-02  4.5200991638747620e-02  4.0977361512781821e-02  4.0634889155467778e-02  3.7101810726774376e-02  4.3708905441458779e-02  4.0994380363370879e-02  4.0654022138149788e-02  3.9343645107706070e-02  4.0022777632166558e-02  4.3256603867974697e-02  4.2996737818789016e-02  4.2135486797746875e-02  4.6535830302555564e-02  3.8211357042297139e-02  3.7872862092998297e-02  3.7772082433086211e-02  3.8241431143152559e-02  3.8634936124761841e-02  3.7877782975408308e-02  3.7508962825029586e-02  4.2997546019415141e-02  4.3953546135164445e-02  3.7624435839454955e-02  3.6325713592550199e-02  3.8085509795589799e-02  4.2195447844941850e-02  4.4504767990418491e-02  4.6344248429239218e-02  4.2695805655717269e-02  3.9530041769483479e-02  4.9027371734203011e-02  4.4964780890466800e-02  3.7270055194170093e-02  4.9565423590888030e-02  4.0413338564027783e-02  3.8885553658734764e-02  3.8494211257654641e-02  3.6239310388900645e-02  3.8650737924150629e-02  3.6694256919098986e-02  4.4441224827575877e-02  4.3158269644311784e-02  4.4514524528631333e-02  4.5625903663499494e-02  4.0140798209512003e-02  3.9925038144287051e-02  4.1304451522175829e-02  3.7059055450537247e-02  4.6119563952991084e-02  4.3043895750495144e-02  4.4477626419028769e-02  4.5042565568371086e-02  3.7748982590703688e-02  3.6485204424451266e-02  3.9890613562226181e-02  3.6493598401744369e-02  3.9804254772851939e-02  3.7123715924329823e-02  3.7241168457639612e-02  3.9065119738323932e-02  4.3057014196504054e-02  3.7055172210696964e-02  3.8900001357074332e-02  4.0059722405346658e-02  3.7565843634524830e-02  3.8184445642223883e-02  3.8684265843206653e-02  3.7391388796481136e-02  4.54583471305