<?xml version="1.0"?>
<VTKFile type="UnstructuredGrid"  version="0.1"  >
<UnstructuredGrid>
<Piece  NumberOfPoints="6486" NumberOfCells="12696">
<Points>
<DataArray  type="Float64"  NumberOfComponents="3"  format="ascii">0 2.5 0  0 0 0  2.5 0 0  2.5 2.5 0  1.25 0 0  2.5 1.25 0  1.25 2.5 0  0 1.25 0  1.25 1.25 0  0 0.625 0  0.625 0 0  0.625 2.5 0  0 1.875 0  2.5 0.625 0  1.875 0 0  2.5 1.875 0  1.875 2.5 0  1.770833333333333 0.7291666666666666 0  0.7291666666666666 1.770833333333333 0  0.9375 0.625 0  1.875 1.5625 0  0.642361111111111 1.163194444444444 0  1.341594827586207 1.883979885057471 0  0.46875 0.46875 0  2.03125 2.03125 0  0.3626104797979798 1.513178661616162 0  1.381740196078431 0.4564950980392157 0  0.9375 2.172619047619047 0  2.172619047619047 0.9375 0  2.096354166666667 0.4036458333333332 0  0.4036458333333333 2.096354166666667 0  1.684027777777778 1.163194444444444 0  0.3418803418803419 0.8693910256410255 0  1.642742622813391 2.162164207604464 0  1.275619849389031 0.8465650753054845 0  0.9136284722222221 1.434461805555556 0  1.732437511238546 0.3406962303960658 0  0.9714402568595876 1.029779313093998 0  1.52281746031746 1.485615079365079 0  2.1875 1.71875 0  1.06819722569879 0.2997236128493951 0  2.136114211309524 1.303478422619048 0  0.3125 0 0  0 0.3125 0  2.5 2.1875 0  2.1875 2.5 0  0.3200021620376328 1.192323085056694 0  0.6738456129277992 0.8304377375553881 0  1.757891808928991 1.861952730357003 0  1.5625 0 0  0.9375 0 0  0.3125 2.5 0  2.1875 0 0  2.5 0.9375 0  0 0.9375 0  0 1.5625 0  0.9375 2.5 0  2.5 0.3125 0  0 2.1875 0  1.5625 2.5 0  2.5 1.5625 0  0.7448220909826522 0.3003573636608841 0  1.027298850574712 1.871151477832512 0  1.331260495098891 2.197262878816185 0  1.207917681892289 1.582765010956622 0  0.4339993447432606 1.801186844743261 0  0.6337298768939392 1.443093039772727 0  2.049851190476191 0.6826636904761904 0  0.6584821428571428 2.219122023809524 0  1.89575676467455 0.9798457973793544 0  1.437570562095628 1.059380588255917 0  1.502090052505845 0.6987070896496241 0  0.2040860661083546 1.705323965099331 0  0.2083333333333333 0.46875 0  0.5070952039991439 0.2211150679997147 0  0.6916302856529919 0.5813591430410241 0  2.265625 1.953125 0  2.2265625 2.2265625 0  1.886424081252096 2.243391360417365 0  1.40625 0.202164758520858 0  0.2269345238095238 0.2269345238095238 0  1.152730869673694 0.5225850378741401 0  1.885631899587912 1.312095130148776 0  1.614808884009367 0.9049784971014416 0  1.890095442220658 0.5126535558463003 0  2.323168682795699 0.46875 0  2.268811725689575 0.2304742875213018 0  0.6002389442105756 1.967426444210576 0  0.1768313172043011 2.03125 0  0.2311882743104251 2.269525712478698 0  2.03125 0.176831317204301 0  2.280262553344767 0.6954945504579233 0  1.979219539285994 1.809922269642997 0  2.336309523809524 1.09375 0  1.09375 2.336309523809524 0  0.9314042474388009 1.662973812215543 0  0.1634067999087722 1.40625 0  2.337090640094896 1.40625 0  1.141616997467638 2.069311773587991 0  0.46875 2.338939559681489 0  1.542440307908715 1.734944797244472 0  1.556713687786879 1.956977865354753 0  0.8264238995344066 1.975424467820646 0  1.466326331454725 1.275271369760862 0  1.655675324257095 0.5444159974393489 0  0.3385416666666666 0.6479255698005697 0  0 0.78125 0  0.5236073939200119 0.984090461540625 0  2.091665741047893 1.519793517904215 0  1.71875 2.5 0  0.5356538886262603 1.623137930505009 0  0 1.09375 0  0.1932884281517095 1.015625 0  0.8569313582417669 1.2198915584249 0  0.8876981284879677 0.8329884081524883 0  1.115618488474214 0.7219586973356271 0  1.186950366204949 1.043465130075318 0  2.057459118787237 1.110823087309335 0  1.830651283878689 2.049810069572418 0  1.689107969301489 1.367247437031697 0  0.4921048768039656 1.298643370653124 0  0.8213975694444444 2.336309523809524 0  2.03125 2.5 0  1.049729400480002 1.283723261332814 0  1.308101375801673 0.6489479469700392 0  2.5 2.34375 0  0.4968777175037714 0.7562964879736076 0  1.40625 2.5 0  1.501347663534097 2.307027627307738 0  1.602813712048603 0.1926218191360736 0  0.8393082906308107 0.463778306132633 0  1.682663349152719 1.598471865581041 0  0.7774174680851571 1.560004941327907 0  1.554204170364662 0.3898593897892066 0  1.842184459051087 0.186443880058197 0  1.358107417651776 1.696381759610015 0  1.18859291992392 1.77598670078022 0  0.1875331222687418 0.7609599743339348 0  1.339536743965101 1.422080365801479 0  0.7788179348750389 0.9955343414928611 0  0.9062978492805438 0.1919636509126373 0  1.256007360640958 0.3160320559396114 0  1.09375 0 0  1.174986727221844 0.1594990293443933 0  2.34375 1.796875 0  2.318026474511116 1.589177949022232 0  2.34375 2.5 0  1.672742954892153 2.332882724550692 0  0.2683637361947215 1.874801596909639 0  2.174770749820102 0.5581009131310781 0  1.443279522965991 0.8870068372898454 0  0.3385416666666667 0.3571428571428572 0  0.78125 0 0  2.060421048269335 2.314363248763811 0  1.088078737088509 0.8967352118723447 0  1.087825368444708 1.454931510884769 0  2.018308232129541 0.8548495425854904 0  1.943987311736842 0.3246298523011434 0  1.71875 0 0  1.85337849796276 1.144833312386208 0  2.3486328125 2.1044921875 0  1.407588788651747 2.042968789119587 0  2.336309523809524 0.865366648092144 0  2.34375 0 0  2.5 0.15625 0  0.15625 2.5 0  0 2.34375 0  0.1638044648294291 1.242263417405867 0  0.356216654757926 1.032569427322806 0  0.3188217956111817 1.355736727000647 0  0.5924956460852111 0.36112522004736 0  0.6594216488965849 0.1603472116132387 0  1.841804599497131 1.72214349266521 0  0.15625 0 0  0 0.15625 0  2.115898634821499 1.894570904464496 0  0.7821877980253907 0.7129993435924866 0  1.003820447087786 0.4516053462784233 0  0.477562948779147 1.138333049293613 0  0.719493678605015 1.305655360135975 0  0.9772457618587566 2.020350128938537 0  0.8764738248887107 1.826219722709673 0  1.254787875123819 2.339010653832026 0  2.343597354852534 1.249982759769001 0  0.78125 2.5 0  0.46875 2.5 0  2.5 1.40625 0  1.09375 2.5 0  2.5 0.78125 0  2.5 1.09375 0  2.03125 0 0  2.5 0.46875 0  1.40625 0 0  0.46875 0 0  0 0.46875 0  0 1.40625 0  0 1.71875 0  0 2.03125 0  2.5 1.71875 0  2.5 2.03125 0  2.005424054645407 1.653223486966518 0  0.1538730573856537 1.559850281736677 0  2.33984375 2.33984375 0  1.166539506212474 1.922878979538754 0  0.3914885633949916 1.65887232812171 0  0.5795503163042564 1.766243562569382 0  0.399533125920212 1.946786875081388 0  0.7866324979014098 2.127719094551316 0  0.3654683023546834 0.1495701132219454 0  0.1527388747131078 0.6116379440619215 0  2.013737577140188 1.391056634712135 0  1.17635437372994 2.213329084238133 0  1.737118141866284 1.010577140843115 0  2.200707118087222 1.164723314085963 0  1.697018908736685 1.993548551451517 0  0.5387621649009668 0.6070503962352419 0  2.032805785855952 0.5330427622570983 0  1.082699501358059 1.667818725183932 0  1.503819781540653 0.5468420196858188 0  2.015409142866072 2.175941657590429 0  1.752057611265444 0.869642097111018 0  0.612251684107783 2.356045720700959 0  1.902817102342857 0.6607642211999982 0  2.159616561739693 0.7867739969338844 0  0.5120038350106624 2.197302352398502 0  1.888200216011548 1.919501662489862 0  1.495909909726654 2.16028358757309 0  0.489139876703609 1.443203008943564 0  0.8819175670410521 0.3301172743913011 0  1.882591144370812 0.8155965192707721 0  1.133979796994841 1.172526771862882 0  2.206217447916667 2.084147135416667 0  2.20361328125 2.36279296875 0  1.395746985657004 1.556054166359645 0  1.704383111516207 1.734750450338683 0  0.9575737847222222 2.36274223823052 0  1.035150984253136 0.1302833343179028 0  1.383966125325753 0.7651479963479179 0  1.64003252158672 0.6824316405528895 0  2.22550785055421 1.487078576356817 0  1.760964431499756 1.48495222505201 0  1.276460980673788 2.004207003584658 0  0.1341477688427096 1.828777507920502 0  1.542261434180652 1.155296658359034 0  1.334627911613854 0.9696897472490321 0  1.30794231473696 1.119420615785191 0  0.7028260459857245 0.4438906910721139 0  1.625757433094055 1.84268057552138 0  0.9818707849053143 1.165603626132254 0  2.0086489901463 1.243134585689553 0  1.934584460420609 2.374094051915812 0  1.798434376789567 2.38671361912528 0  1.206314791201715 1.382064292497919 0  0.6333752893366955 0.7023738550008095 0  0.7796219811205605 1.42573253164258 0  1.564399711917382 1.026040828857629 0  0.3385416666666666 0.4889012896825397 0  0.1041666666666667 0.390625 0  0.989112246382566 1.543537365516289 0  2.025724425454636 0.9846960595520872 0  0.6602885475034063 2.086117390485779 0  1.607130551925032 1.267198646640915 0  0.1317864544877056 0.8896173683400176 0  1.755387840017567 2.230364320056445 0  1.301540702984401 0.1216289692748247 0  1.433170657577442 0.3331052752740999 0  1.500459610550388 0.113513924782439 0  0.6494291520606965 1.029586599619295 0  1.010146149868299 0.794897284196169 0  0.3700844198238017 2.235390157870766 0  0.3360891767780704 2.36656279435396 0  1.876856241037701 1.437150669863757 0  1.778674102957329 1.245979347269706 0  0.5472829890977179 0.1005517127039925 0  0.4669074189005698 0.3416784232954367 0  1.472765289289269 1.850899166481903 0  1.555853593327178 1.608452097912802 0  0.6708955559113426 1.646561631116984 0  0.8164699620322933 0.5924479455478063 0  0.3167738989468366 1.758696809749795 0  0.2788007305565096 1.605499483471246 0  0.7821720982350511 0.181524936294752 0  1.376812251214195 2.313340247908297 0  1.785652202614777 0.5962261755537186 0  1.761467296310972 0.4679567244718574 0  2.2265625 1.8359375 0  2.3828125 1.9140625 0  0.5279531607054191 2.071552361614785 0  2.397573269551114 0.234375 0  2.383578172599618 0.3589298466020009 0  0.1024267304488855 2.265625 0  0.1164218274003825 2.141070153397999 0  0.2696857594953064 2.135405441512016 0  2.164961300137334 0.1375322943529536 0  2.137757548369486 0.2724194778647587 0  2.238873711826398 0.3626419179496562 0  0.1001414910226386 0.234375 0  0.2176339285714286 0.3478422619047619 0  0.2503620791333544 0.1061694061057066 0  2.336445461915368 0.1250451055247424 0  0.2154004640409726 2.3918124
[...]
<PointData  Scalars="f_16-1"> 
<DataArray  type="Float64"  Name="f_16-1"  format="ascii">3.5490895808240200e-29  -3.6643053655692452e-10  -2.5929656770718917e-38  5.3803178858966981e-39  -2.1967436142451967e-18  5.7536706114472913e-32  5.3651151682048948e-29  3.3867433573264628e-10  7.7917063726174347e-14  1.2091520965953525e-04  -7.1617470994857931e-12  8.5284538987453517e-29  3.9483279702052790e-19  1.9200359351589833e-35  -4.0530864217202550e-28  3.5095673522594172e-34  6.2490251846879138e-33  1.8863055778767290e-20  1.0825748821581456e-16  4.7554062518395999e-08  2.2887424316720839e-23  7.8662695325872871e-09  6.2855460249392800e-21  4.2256360739311160e-04  3.3561964766238290e-29  2.8283245563721959e-13  1.8321496010857484e-15  3.6466300876965799e-23  1.0752236610036780e-26  3.9131160432280671e-30  1.0957373408635262e-22  8.0749855260068779e-19  1.5605941853389392e-05  8.9885915000595526e-27  2.5739837815475631e-12  6.3610285605579938e-13  2.2509537665891582e-23  1.2315502229529154e-09  1.6363224229712036e-18  1.0153273168992957e-28  4.6550683945264875e-12  5.1089115822509102e-26  5.7951048866301163e-09  3.6363682971378458e-05  2.8958805485932722e-36  5.6068866468966890e-36  6.3699527672974120e-09  3.2402171016153677e-06  1.2609149879481747e-24  -3.0719742557508912e-23  -2.3929656089732235e-14  1.1536591115628039e-29  -2.1551552319220398e-33  6.5432997795810522e-33  5.8524161066964877e-07  2.9907856265295459e-14  1.1890716908338798e-28  -9.0013860608281484e-39  3.7612835170718715e-24  1.1850506889859737e-30  1.3979657532817493e-32  1.3175889972468726e-07  5.1533652221079148e-19  3.8019192013082287e-25  1.4676207478781164e-16  1.6777959231660697e-17  5.5315863100027031e-12  5.2061216748977000e-26  3.5480328151512783e-24  7.3834555536506689e-22  7.0713492957977002e-15  7.0282060107676569e-16  1.7770892270430218e-16  2.6072552423262244e-03  4.6814686617913792e-06  1.4250592565235460e-05  1.8006715357553850e-31  1.9768267137243619e-33  4.4075211201335303e-30  -7.4441212171797214e-20  2.3793614507597427e-04  2.1295313414373778e-11  2.5964855639042259e-22  2.4592930937189523e-17  1.3387276681975116e-24  -2.9225569521717228e-34  -4.2900180915891399e-35  7.5964253053589390e-20  1.2220007472781368e-21  6.2741692545649687e-26  -7.4278629635854111e-31  2.0809783338072266e-30  1.2479717711922623e-26  2.3611983780172384e-29  4.0648363174228246e-26  7.5034239953231685e-16  3.0187633233244656e-12  1.5231547133988190e-29  2.4078876947252111e-22  1.7746483814148798e-26  4.4037658500504801e-21  1.1489303222723127e-23  5.8093014126469317e-20  2.2825125133021353e-16  1.4264028127683980e-19  5.2664263101640484e-04  1.1935897565571008e-05  9.3469196577541705e-07  2.6117585937616665e-26  1.2499544853459201e-31  1.5381579423384235e-14  1.6333992051333773e-08  2.3749645541490208e-07  2.2032311019106597e-10  6.9896617654937714e-08  3.5664174121862716e-10  6.4320549275879721e-12  1.3607250765768610e-24  2.3652498113583822e-27  8.4746116461359317e-20  5.1689132913063193e-10  5.9132207768447338e-26  2.1897450315180481e-34  1.7893926660921605e-12  4.2923152055763076e-13  1.2548969886604934e-37  6.3434101423037167e-05  9.3685483450034941e-30  1.1258686200618965e-27  -1.6944353224618455e-23  2.0462944043856476e-07  2.6370847711181145e-21  5.7654660193113900e-14  2.8018924658389477e-19  -1.2295598567985310e-27  5.7266603562371595e-19  1.2976228594411031e-18  5.5947394498422344e-05  4.2132283858861069e-16  6.8259659496993906e-08  2.8014045512282690e-11  7.5865806847658836e-15  -3.2949158777567402e-16  2.8258262520116833e-16  1.9047672490064529e-31  5.0999116750871347e-30  1.6136577508404151e-37  3.3592725824159303e-29  4.4582152563439292e-19  6.4118191408983837e-30  9.8955317867215341e-15  1.0629275936724159e-03  -4.4242945853154170e-13  1.1037200357508857e-32  3.6781826594402174e-10  2.5866933112601470e-14  2.7496449559431084e-24  2.6634269573773937e-28  -1.3664161673247505e-25  2.2018866850282879e-21  8.9307717645241724e-34  1.4873164569864019e-23  3.6278322645048817e-30  -7.9218864346060180e-36  -1.1109920006610618e-38  2.6454713632102054e-29  6.8903986775358355e-27  3.7184697154214524e-10  4.5559783916648890e-07  4.2180942162377135e-11  1.6612715699222759e-05  1.0744082643873704e-08  2.9095142083811469e-24  -2.1583600796365533e-09  -4.6635955051669847e-08  3.7562302265492609e-29  1.3360231198148365e-06  1.2806178027519073e-09  3.8262454282384163e-08  1.1865883089719123e-10  6.7159356855646931e-21  7.9295140392410015e-18  9.7434428909044760e-27  1.8389051678505090e-29  8.8837894286899339e-29  3.3023450983122596e-29  4.7705133479984808e-32  1.2024191555529652e-28  5.2072148306487305e-34  3.5477013961589508e-32  -1.1482881586396947e-30  -5.7229371316509581e-38  -5.7644175650031018e-21  1.0859947871266400e-09  3.4509879879167442e-04  4.4695774167543447e-12  1.2578123520657478e-16  1.7353245038362010e-21  2.7304286685209458e-33  3.9084237254611013e-35  8.9129314330012238e-26  2.2362726684774739e-14  8.9159763693146299e-36  1.9050471168304383e-20  2.5027657469575286e-15  1.0447472780227487e-16  4.4833107376625710e-20  2.1075924926935954e-22  2.7687861313349129e-06  3.8270406317761536e-04  1.6648477389233393e-24  1.7873730966547341e-24  2.5868697608352838e-19  5.0433448442093380e-27  2.5670517372872752e-25  1.4470006454613441e-04  3.9679299305506494e-27  1.2324565471984401e-16  6.1920284559736471e-17  1.2866806826513101e-30  1.8185697940976969e-19  1.3736696892581074e-26  2.8579708649610962e-23  1.8974976620166642e-27  5.6819115555962217e-24  1.2540734745896701e-26  1.1651329136074526e-25  6.6091027293070698e-12  6.2377675948982566e-09  3.8642106928164060e-22  3.8582355648501063e-12  7.2170989013587214e-32  8.3131490204513827e-35  6.1826975908365728e-18  7.1497158565135005e-23  2.0338005438245074e-26  -1.0118956031920445e-15  6.4391388961081276e-14  2.1463335045213221e-18  4.3825359674185694e-28  2.1930230878172735e-21  4.3280832058574637e-22  3.1095565013701105e-18  8.9772875005674895e-17  2.3210988631468860e-13  1.0321884574473136e-13  4.9539922337039433e-06  5.4058699917976073e-23  8.7545126191093806e-11  7.3059980578720097e-24  4.6961073874086656e-32  5.5200212702711443e-31  1.5671663265612851e-14  2.2953585981760726e-05  2.8870943162350501e-12  1.3859697108682612e-16  1.6415149058789881e-03  2.6772560586970110e-03  1.2676916398116917e-14  4.6226231819601931e-24  6.5221386837938531e-22  4.1764288878263598e-18  2.4778400647720433e-06  1.4351505077488277e-28  -1.0545001028607941e-18  1.2385871316776994e-17  -4.6943019138768537e-22  1.3822411033731701e-07  4.3196771082483270e-09  7.8201554750779503e-25  1.8000034509830344e-27  1.0080694659046970e-22  1.6233565939968034e-20  1.0994049646640509e-08  1.4511920621161100e-04  1.0333385660281330e-21  4.5532919229641041e-20  6.6070856302415207e-15  8.7449870242917254e-07  3.2606129412825272e-17  6.7583716206959614e-15  1.2747582416606342e-09  3.9940337402718085e-27  9.9068814869780440e-22  1.4430710144461993e-22  5.7659453339436782e-30  8.5684301327721068e-33  9.5657553025586211e-22  -2.3791668783449489e-37  -1.9041449825036165e-36  2.2335533783807617e-25  2.3776153497078364e-23  3.6943552139491424e-23  -4.3096430172608589e-33  -2.5264961384162603e-32  -1.2098499160584434e-33  4.3516285164159173e-04  3.3707288141562506e-03  3.1039596856394184e-07  -4.6161038927211241e-36  1.0441796391719815e-27  3.8742996093558400e-24  1.4308058295983762e-07  -2.6578513696598071e-25  1.0729102720923132e-09  2.6378085917513703e-12  2.5687369289008235e-13  6.7416377395460826e-21  7.3917519736931840e-20  5.2414699987221347e-09  3.8504386324628632e-20  -3.1654442177307255e-29  2.0718165392155184e-33  5.4638374975116234e-32  2.8073080017888700e-35  6.6671974206112481e-05  1.0178652290004266e-18  7.8905357427142224e-19  3.1243080209626299e-16  5.7786604775021514e-28  8.4889859434603690e-18  5.7042618169512519e-25  1.1827632514402251e-05  1.2214411808687459e-15  1.8348270260130331e-17  2.1185530339866787e-28  2.3888981672325851e-13  2.3948007649532322e-27  1.0972933710980634e-23  1.1235802329393068e-08  1.2941918913428003e-30  5.1815984845667472e-05  6.3396429433052257e-10  2.4622864819112112e-27  7.4638714435493322e-28  3.3819624611244385e-27  1.3242200945737630e-27  9.2388127907041405e-13  3.5159210017260352e-11  3.7560554999890700e-31  6.3514712892974045e-28  4.5852921150903699e-09  -2.0836496138247109e-24  3.7019767011892463e-18  5.3914386550108090e-29  -6.5932317197732706e-27  9.5209538844515748e-32  2.8693078092534554e-25  3.3128231678859517e-15  3.0741851825323663e-27  9.6627581130170227e-12  1.1081620033051801e-04  6.4373558735980878e-04  1.1518430206367376e-03  9.6854448242508364e-21  2.1141686513020327e-15  2.1569574239765207e-09  9.2284516277793959e-31  1.1335706783404965e-30  2.5132184866265426e-28  8.6921931121307187e-28  1.6601647479305806e-37  9.8539243630826385e-25  2.1477413136372146e-26  7.6002556330699092e-15  2.1908470148949599e-34  1.9837113675611268e-20  7.1152514124343838e-27  1.8052348173027017e-21  2.1910080424042847e-19  3.1739017835591071e-15  4.0774435921819357e-13  8.3433767600232128e-05  9.3709852059065533e-32  1.5268105907137963e-19  6.7326889296522325e-11  1.6719906220916195e-11  2.5672803233619067e-29  1.4638880158093687e-06  1.1745199008504183e-07  5.6605846584019683e-07  4.7504764191916846e-09  3.9506984493637376e-24  2.4082569703114603e-11  5.4498282954798871e-18  1.4626425552305355e-15  1.5051579636729026e-20  1.5925147556619960e-22  1.3750637593943465e-28  5.3298264081872435e-14  1.0960426367730906e-13  1.2752275339509826e-06  4.4752412702726511e-24  4.1393939178434690e-06  3.0328501902517929e-08  1.5275159099446232e-30  4.0269756977276032e-17  2.3787073141321482e-22  2.9984438603025819e-30  5.1995565215954709e-13  7.0726862779778440e-04  2.1071631452926721e-07  7.1397126750820475e-23  1.4174008884050202e-25  1.0111754847392425e-16  1.8536681885333077e-25  3.6567305587941447e-29  1.7324855108273375e-13  1.2065591167895305e-05  -4.3066244740855257e-37  2.1832917904175167e-11  8.1701950664827471e-12  6.3503711080084102e-11  -2.2353288390572092e-32  6.1345368082927787e-16  1.8679971847546011e-13  2.8037401532863998e-21  2.5029532798598314e-04  7.5142401127736259e-08  4.2217889736201562e-29  3.4491079750365651e-13  2.5552018272323273e-22  1.6709234234424380e-25  3.7609204444295783e-27  6.3757267605757986e-11  3.7813215424543699e-09  4.0734031128846831e-18  8.3880314167302282e-23  7.5443632938322315e-26  5.9996466200881414e-28  -3.4749457525485037e-13  1.9967491985835455e-15  2.0012942866901230e-27  2.0634062410771199e-25  -1.5599107951858095e-30  1.1245359088784695e-16  2.1400038208474418e-20  -1.6352262785127388e-20  2.1950847790430275e-24  5.5760917757164933e-11  2.2529063391173076e-31  9.2623931262011045e-17  2.7351625011858838e-10  4.5137248347425726e-27  3.1348802351501315e-36  5.5856811757832689e-07  2.1506373641596971e-21  1.5800630797726667e-14  6.4537885075509936e-11  -1.5507655679734916e-34  1.8516161669948535e-17  2.0468299102679995e-08  3.1005329539825250e-26  4.7958196861661314e-33  3.0052544578655969e-28  8.8740030787296798e-29  7.0449331639616529e-09  1.3266144165860155e-04  1.1731400938492372e-13  1.1810096698591898e-05  2.5723644418859062e-20  8.0776885627022809e-18  3.0359097742435231e-10  -5.1861456588093533e-32  -1.9260109068088822e-31  5.0274341236799375e-11  8.3567898965653428e-25  2.3981597182393550e-06  1.1290283971768492e-18  3.4813149474074181e-04  -3.2065372509233850e-29  3.5014882161412827e-07  9.6021936542509003e-08  4.1333309662717935e-14  1.2406740852858912e-15  4.5568871879595565e-17  1.8492909863889803e-19  4.3369817008393825e-20  1.1272252983033122e-17  3.2328664384026704e-07  9.3465548726451114e-30  2.0976924987826785e-31  2.6325132812018179e-33  1.9196832178263051e-25  6.3090702537882420e-09  3.8253836737023539e-31  2.4583315265668053e-06  1.0820304826813947e-13  1.2612923475344815e-09  6.9685589762668595e-23  5.3065917533062497e-13  1.6499575535384584e-17  4.7687027187477433e-27  6.3044343009048532e-16  1.4962629527241479e-33  1.0366507924933902e-29  2.2399592064440216e-22  1.0134886011643517e-28  1.5111070139630224e-19  1.3868140929159149e-30  2.2757390722013232e-25  1.4134755838913210e-17  1.2198249327032196e-12  3.2216433466100268e-09  -5.2887908800326296e-37  -4.2425380795258996e-36  3.5602735678988431e-27  7.9944911646371084e-14  2.1089253537227456e-18  8.8947075246492497e-18  1.9161360103321673e-20  3.4813061279670696e-33  3.1318301650500884e-10  6.1902354853374067e-24  5.7427078600221890e-09  3.4655990293970763e-07  2.9052549961569449e-23  7.3281934673449951e-18  1.7296946210606625e-20  5.2137587349000632e-28  1.1026095681879985e-27  -2.7932514396499214e-16  3.3669373525394390e-09  3.0120790864749323e-14  4.0037009209217364e-30  8.5130451023504354e-24  1.4443683502650333e-18  7.5552294930886896e-20  1.1630775933079012e-20  2.1837068571627331e-24  1.2437529483220955e-21  1.4383348062530877e-28  7.0986502411504604e-28  -9.7199921771237479e-18  1.6248399170021684e-34  3.2635976846591984e-25  9.3994532763737732e-26  5.2617925585688135e-23  6.5729752265283596e-33  2.0368593937831090e-31  3.2229151514236581e-32  -2.1657760727735914e-38  2.1204003863094382e-23  6.8438658674619102e-30  6.3413197541965865e-08  6.8995929737702684e-08  8.2509306451479393e-18  5.9270395599719194e-28  1.3787395353763839e-30  3.2553484905518271e-19  4.2385852914859185e-35  3.3974524162052355e-33  2.0248348675545660e-13  1.5541446817430772e-14  -2.1761143764365073e-35  2.1936277144597914e-24  1.0352965128405454e-16  7.9998220095732574e-09  1.2471760702413208e-25  2.5989671831514769e-25  -1.6930858875508775e-34  8.9929711003918715e-04  2.5504215818864103e-03  6.6062752224817440e-04  2.8693125374375494e-19  -1.5561391410328859e-37  5.5667790507191840e-22  2.6297714739444743e-06  1.8486070035330703e-33  1.5372597748801662e-26  -1.8156896817317221e-22  5.4785791190148205e-20  9.3381889439698776e-25  1.7964838859320395e-36  5.7768321214831108e-19  6.4841582570176631e-30  2.6582446979940876e-34  2.6625022630381920e-05  4.8794098317207239e-13  2.2381954181083811e-18  5.6410066200911028e-28  1.1691423900087430e-31  6.6676159742705196e-17  3.1303811369712003e-24  1.1324500598371149e-07  5.6091067449312712e-17  1.1767820985190436e-34  1.0238191337529341e-14  8.8228631390342799e-07  5.2491266925920340e-11  3.6800269867530332e-22  6.4210492097672513e-10  6.5019704984901935e-13  8.3669932263995772e-11  3.6776031682508154e-28  1.2924695993066911e-21  6.1956137335294573e-05  1.8726811183998628e-11  2.3028682160028116e-06  1.0140468748351310e-09  1.1362559721279896e-07  1.1023778093836043e-04  1.4642197226330102e-05  7.9072376993631775e-31  2.1126431992271851e-32  1.2176512496118108e-15  7.5948011239025453e-14  7.0823412046859789e-14  3.9947010067993149e-12  5.5045745597493137e-03  5.0200109061870499e-24  9.2941096262999027e-29  -3.7370306697248885e-15  2.9865587163134925e-30  3.6039997439646475e-32  1.3960957387991777e-32  4.1444749983844134e-22  6.9472365742138843e-32  5.1782726119930565e-10  7.5487201206739636e-28  4.6175697036870829e-15  4.6800954100317532e-26  1.6248408328980391e-26  -3.1350517978169258e-10  -3.5227792305752282e-09  2.4297603569664071e-29  -1.0803034423121995e-19  1.2770496336138236e-34  3.2736840204440547e-05  7.5354467275094557e-23  -2.3833203893164775e-37  6.9610153119270971e-06  4.8464379223862801e-06  1.4463738318558585e-18  5.7309625096953060e-26  5.6915214560333971e-15  3.4162468891956181e-11  1.7803228586630197e-33  7.3950454961976989e-08  -7.9313976744955486e-34  1.5766526859251226e-29  2.5447797466781992e-12  6.7912218838549100e-26  1.0667516495710828e-03  3.6315746168067016e-16  8.1026366080517469e-23  3.9611569972796698e-21  1.7548123443219397e-18  4.4606425593231982e-29  -1.2996876523652485e-25  1.2089978953802981e-19  1.5784925973292351e-11  2.3766668484633116e-20  4.9223435332749252e-24  1.8989768088223045e-29  8.0278741292997466e-31  5.1777559851876020e-23  3.0756589248932669e-10  8.8960491756423704e-29  1.7686239289573298e-31  -2.4137841890623800e-17  6.7991299222827390e-37  1.2836242671211520e-28  4.3066674620367848e-35  4.2644995701080660e-28  3.4659366900686761e-29  1.9289019971991035e-29  2.3366095633567037e-15  8.7760692072850509e-29  8.2934991768471518e-33  -5.6279345269239432e-27  -1.9483118393405807e-24  5.0182234174025323e-32  4.9221550878812962e-32  3.0341816365593977e-32  1.0580367759682351e-07  2.3838243246820618e-09  4.3819616259962887e-11  8.8448056973149289e-29  4.8403866281090248e-05  -1.5715293628516266e-13  -2.4471950850962066e-29  2.8860776041630684e-20  2.3168694774572504e-29  2.8620857711514991e-09  1.6539192935532674e-25  -7.0271602766472013e-39  1.4474011265972769e-10  -5.2058642848505577e-22  2.7221108159370273e-07  3.1656086935549576e-04  2.6043144186738971e-32  6.0574178005864832e-37  2.6548775067432953e-38  2.1275268926727670e-38  3.2510969985738459e-13  2.6144702647195704e-30  2.3335834117200999e-04  1.1659023921692482e-33  1.3253352831255026e-35  -2.2563466121560770e-38  6.5574728748666142e-23  1.0604339521782047e-24  1.1061365887701050e-15  1.8201125714594294e-27  6.7657906089327336e-16  6.9077060982090663e-28  5.7357776821627376e-05  9.9441794058651716e-05  3.3084983624093059e-04  6.5303446618917487e-30  1.3086608772065271e-08  1.6006790076829963e-07  2.1820793127910049e-04  2.4987360809950910e-21  2.2139381320921243e-10  3.4803012037486704e-10  6.1054751267537642e-22  3.2295469463444251e-13  3.3875990777140697e-14  2.9830689243914127e-15  3.0727463275952037e-11  1.5185511048709848e-04  1.1303229680733461e-03  5.9969875346845788e-28  9.2349698313828354e-23  6.2891702198618163e-20  1.3988913903079455e-26  1.3002149871466705e-05  7.1408227292483918e-31  5.4805335758535504e-14  1.1248136385664285e-21  1.9976056787568151e-11  3.0276542822758979e-06  3.7344086388650757e-17  2.2854086886173893e-20  2.7511333204092377e-16  3.3281042066803800e-08  5.9691359771263020e-10  1.6191740883608782e-26  6.0125689332672964e-29  3.8217061746640975e-06  7.2333191431536137e-27  6.6342839439531639e-29  4.5923090214878255e-13  1.1104808796546502e-18  2.5915358718105401e-07  2.6657048100067853e-20  2.0943551711112413e-05  3.1696622444217841e-29  2.5171350101977081e-15  4.2560960939993841e-16  8.0765296590632301e-26  3.1215152518756248e-23  1.8728876631599397e-23  1.3645381951668022e-25  9.6659012302500558e-25  6.9196348634571352e-23  3.8157450901178386e-12  1.6979174306634373e-22  4.0536740419606563e-17  7.9250741196121981e-13  9.6162891728495626e-19  1.3679702842926071e-19  5.1030122996847679e-28  1.4650726868792476e-15  8.5101432071527643e-22  3.7264114710772028e-23  4.0590474666778642e-22  2.5476099684848734e-21  1.8707708942721680e-14  1.2334408450212219e-14  2.4619846900393350e-16  4.8665497264628613e-11  6.1330178583492989e-33  5.1888075072144260e-25  1.4252251541813293e-25  3.7876300412038088e-24  6.5093834237573493e-24  3.8146596691020015e-25  2.2125046357787839e-28  8.4594534109843129e-19  2.5937945855420935e-19  1.1100351329322800e-28  9.6991960591190326e-32  4.0081890414866569e-27  4.4917337668910580e-17  4.5537014942990477e-12  1.4726594278678583e-09  1.1788067608744345e-18  -2.0378052912822761e-30  3.5652017501086364e-07  -1.8769179646729421e-18  9.9413769642647765e-30  4.6618364286255993e-05  -4.2413312635399544e-28  4.0387966051561439e-30  3.5706064800242627e-30  1.0185505736543827e-33  4.6830481500531695e-27  1.8705323783725757e-28  4.7903533783824886e-12  2.3459942920619720e-18  3.1742133938954517e-15  4.6799782281025043e-10  1.0968051130353117e-24  2.0569753253095891e-26  1.1163681540207099e-17  -4.8569624708885139e-35  2.4389212102228564e-12  1.6723167893794821e-16  6.6415291884160688e-12  5.2868704706885011e-11  3.0282551023831327e-25  7.2547932443983112e-28  1.4918975701311836e-25  8.9198978129951994e-29  1.6534527184223046e-24  -2.9044420822982859e-35  1.0494803813092884e-33  1.0687202549660725e-22  -3.0616745007117383e-23  6.6995133373689895e-35  -7.8258885688035801e-32  2.2144252557297072e-23  4.6526182274295995e-26  1.2295623