<?xml version="1.0"?>
<VTKFile type="UnstructuredGrid"  version="0.1"  >
<UnstructuredGrid>
<Piece  NumberOfPoints="6486" NumberOfCells="12696">
<Points>
<DataArray  type="Float64"  NumberOfComponents="3"  format="ascii">0 5 0  0 0 0  5 0 0  5 5 0  2.5 0 0  5 2.5 0  2.5 5 0  0 2.5 0  2.5 2.5 0  0 1.25 0  1.25 0 0  1.25 5 0  0 3.75 0  5 1.25 0  3.75 0 0  5 3.75 0  3.75 5 0  3.541666666666667 1.458333333333333 0  1.458333333333333 3.541666666666667 0  1.875 1.25 0  3.75 3.125 0  1.284722222222222 2.326388888888889 0  2.683189655172414 3.767959770114943 0  0.9375 0.9375 0  4.0625 4.0625 0  0.7252209595959597 3.026357323232324 0  2.763480392156863 0.9129901960784315 0  1.875 4.345238095238095 0  4.345238095238095 1.875 0  4.192708333333333 0.8072916666666664 0  0.8072916666666665 4.192708333333334 0  3.368055555555555 2.326388888888889 0  0.6837606837606839 1.738782051282051 0  3.285485245626782 4.324328415208927 0  2.551239698778062 1.693130150610969 0  1.827256944444444 2.868923611111111 0  3.464875022477093 0.6813924607921316 0  1.942880513719175 2.059558626187995 0  3.04563492063492 2.971230158730159 0  4.375 3.4375 0  2.13639445139758 0.5994472256987903 0  4.272228422619047 2.606956845238095 0  0.625 0 0  0 0.625 0  5 4.375 0  4.375 5 0  0.6400043240752655 2.384646170113389 0  1.347691225855598 1.660875475110776 0  3.515783617857982 3.723905460714006 0  3.125 0 0  1.875 0 0  0.625 5 0  4.375 0 0  5 1.875 0  0 1.875 0  0 3.125 0  1.875 5 0  5 0.625 0  0 4.375 0  3.125 5 0  5 3.125 0  1.489644181965304 0.6007147273217681 0  2.054597701149425 3.742302955665024 0  2.662520990197781 4.39452575763237 0  2.415835363784578 3.165530021913244 0  0.8679986894865213 3.602373689486522 0  1.267459753787878 2.886186079545454 0  4.099702380952381 1.365327380952381 0  1.316964285714286 4.438244047619047 0  3.7915135293491 1.959691594758709 0  2.875141124191255 2.118761176511833 0  3.00418010501169 1.397414179299248 0  0.4081721322167092 3.410647930198662 0  0.4166666666666666 0.9375 0  1.014190407998288 0.4422301359994293 0  1.383260571305984 1.162718286082048 0  4.53125 3.90625 0  4.453125 4.453125 0  3.772848162504192 4.48678272083473 0  2.8125 0.404329517041716 0  0.4538690476190476 0.4538690476190476 0  2.305461739347387 1.04517007574828 0  3.771263799175824 2.624190260297553 0  3.229617768018734 1.809956994202883 0  3.780190884441317 1.025307111692601 0  4.646337365591398 0.9375 0  4.537623451379149 0.4609485750426037 0  1.200477888421151 3.934852888421152 0  0.3536626344086022 4.0625 0  0.4623765486208503 4.539051424957397 0  4.0625 0.353662634408602 0  4.560525106689535 1.390989100915847 0  3.958439078571988 3.619844539285994 0  4.672619047619047 2.1875 0  2.1875 4.672619047619047 0  1.862808494877602 3.325947624431087 0  0.3268135998175443 2.8125 0  4.674181280189791 2.8125 0  2.283233994935276 4.138623547175983 0  0.9375 4.677879119362977 0  3.08488061581743 3.469889594488945 0  3.113427375573758 3.913955730709506 0  1.652847799068813 3.950848935641292 0  2.932652662909449 2.550542739521724 0  3.311350648514189 1.088831994878698 0  0.6770833333333333 1.295851139601139 0  0 1.5625 0  1.047214787840024 1.96818092308125 0  4.183331482095785 3.03958703580843 0  3.4375 5 0  1.071307777252521 3.246275861010018 0  0 2.1875 0  0.386576856303419 2.03125 0  1.713862716483534 2.439783116849799 0  1.775396256975935 1.665976816304977 0  2.231236976948428 1.443917394671254 0  2.373900732409897 2.086930260150635 0  4.114918237574474 2.221646174618671 0  3.661302567757379 4.099620139144836 0  3.378215938602977 2.734494874063393 0  0.9842097536079312 2.597286741306247 0  1.642795138888889 4.672619047619047 0  4.0625 5 0  2.099458800960004 2.567446522665629 0  2.616202751603346 1.297895893940078 0  5 4.6875 0  0.9937554350075428 1.512592975947215 0  2.8125 5 0  3.002695327068194 4.614055254615477 0  3.205627424097207 0.3852436382721472 0  1.678616581261621 0.927556612265266 0  3.365326698305438 3.196943731162083 0  1.554834936170314 3.120009882655813 0  3.108408340729323 0.7797187795784133 0  3.684368918102174 0.3728877601163941 0  2.716214835303553 3.39276351922003 0  2.37718583984784 3.551973401560441 0  0.3750662445374837 1.52191994866787 0  2.679073487930202 2.844160731602957 0  1.557635869750078 1.991068682985722 0  1.812595698561088 0.3839273018252746 0  2.512014721281916 0.6320641118792227 0  2.1875 0 0  2.349973454443689 0.3189980586887866 0  4.6875 3.59375 0  4.636052949022233 3.178355898044465 0  4.6875 5 0  3.345485909784306 4.665765449101383 0  0.536727472389443 3.749603193819277 0  4.349541499640203 1.116201826262156 0  2.886559045931982 1.774013674579691 0  0.6770833333333334 0.7142857142857143 0  1.5625 0 0  4.120842096538671 4.628726497527622 0  2.176157474177018 1.793470423744689 0  2.175650736889416 2.909863021769539 0  4.036616464259081 1.709699085170981 0  3.887974623473683 0.6492597046022868 0  3.4375 0 0  3.70675699592552 2.289666624772415 0  4.697265625 4.208984375 0  2.815177577303495 4.085937578239174 0  4.672619047619047 1.730733296184288 0  4.6875 0 0  5 0.3125 0  0.3125 5 0  0 4.6875 0  0.3276089296588581 2.484526834811734 0  0.712433309515852 2.065138854645612 0  0.6376435912223634 2.711473454001295 0  1.184991292170422 0.7222504400947201 0  1.31884329779317 0.3206944232264773 0  3.683609198994263 3.44428698533042 0  0.3125 0 0  0 0.3125 0  4.231797269642997 3.789141808928991 0  1.564375596050781 1.425998687184973 0  2.007640894175573 0.9032106925568466 0  0.955125897558294 2.276666098587227 0  1.43898735721003 2.611310720271951 0  1.954491523717513 4.040700257877075 0  1.752947649777421 3.652439445419346 0  2.509575750247638 4.678021307664052 0  4.687194709705067 2.499965519538002 0  1.5625 5 0  0.9375 5 0  5 2.8125 0  2.1875 5 0  5 1.5625 0  5 2.1875 0  4.0625 0 0  5 0.9375 0  2.8125 0 0  0.9375 0 0  0 0.9375 0  0 2.8125 0  0 3.4375 0  0 4.0625 0  5 3.4375 0  5 4.0625 0  4.010848109290813 3.306446973933037 0  0.3077461147713075 3.119700563473354 0  4.6796875 4.6796875 0  2.333079012424948 3.845757959077508 0  0.7829771267899832 3.317744656243421 0  1.159100632608513 3.532487125138763 0  0.799066251840424 3.893573750162776 0  1.57326499580282 4.255438189102632 0  0.7309366047093668 0.2991402264438908 0  0.3054777494262156 1.223275888123843 0  4.027475154280377 2.78211326942427 0  2.35270874745988 4.426658168476266 0  3.474236283732569 2.021154281686229 0  4.401414236174444 2.329446628171927 0  3.39403781747337 3.987097102903034 0  1.077524329801934 1.214100792470484 0  4.065611571711903 1.066085524514197 0  2.165399002716117 3.335637450367864 0  3.007639563081306 1.093684039371638 0  4.030818285732145 4.351883315180857 0  3.504115222530889 1.739284194222036 0  1.224503368215566 4.712091441401919 0  3.805634204685714 1.321528442399996 0  4.319233123479386 1.573547993867769 0  1.024007670021325 4.394604704797005 0  3.776400432023095 3.839003324979723 0  2.991819819453308 4.320567175146181 0  0.9782797534072181 2.886406017887129 0  1.763835134082104 0.6602345487826022 0  3.765182288741625 1.631193038541544 0  2.267959593989681 2.345053543725764 0  4.412434895833333 4.168294270833333 0  4.4072265625 4.7255859375 0  2.791493971314009 3.11210833271929 0  3.408766223032414 3.469500900677365 0  1.915147569444444 4.725484476461039 0  2.070301968506271 0.2605666686358055 0  2.767932250651506 1.530295992695836 0  3.280065043173439 1.364863281105779 0  4.45101570110842 2.974157152713635 0  3.521928862999512 2.96990445010402 0  2.552921961347576 4.008414007169315 0  0.2682955376854191 3.657555015841003 0  3.084522868361304 2.310593316718068 0  2.669255823227708 1.939379494498064 0  2.615884629473921 2.238841231570381 0  1.405652091971449 0.8877813821442277 0  3.25151486618811 3.68536115104276 0  1.963741569810629 2.331207252264507 0  4.017297980292599 2.486269171379106 0  3.869168920841219 4.748188103831625 0  3.596868753579134 4.77342723825056 0  2.41262958240343 2.764128584995838 0  1.266750578673391 1.404747710001619 0  1.559243962241121 2.85146506328516 0  3.128799423834764 2.052081657715259 0  0.6770833333333333 0.9778025793650794 0  0.2083333333333333 0.78125 0  1.978224492765132 3.087074731032578 0  4.051448850909273 1.969392119104174 0  1.320577095006813 4.172234780971559 0  3.214261103850064 2.534397293281829 0  0.2635729089754111 1.779234736680035 0  3.510775680035133 4.460728640112889 0  2.603081405968802 0.2432579385496493 0  2.866341315154884 0.6662105505481998 0  3.000919221100777 0.2270278495648781 0  1.298858304121393 2.05917319923859 0  2.020292299736597 1.589794568392338 0  0.7401688396476035 4.470780315741533 0  0.6721783535561408 4.733125588707921 0  3.753712482075402 2.874301339727514 0  3.557348205914658 2.491958694539413 0  1.094565978195436 0.2011034254079851 0  0.9338148378011396 0.6833568465908735 0  2.945530578578538 3.701798332963805 0  3.111707186654356 3.216904195825605 0  1.341791111822685 3.293123262233967 0  1.632939924064587 1.184895891095613 0  0.6335477978936732 3.517393619499591 0  0.5576014611130192 3.210998966942492 0  1.564344196470102 0.3630498725895039 0  2.75362450242839 4.626680495816594 0  3.571304405229554 1.192452351107437 0  3.522934592621944 0.9359134489437148 0  4.453125 3.671875 0  4.765625 3.828125 0  1.055906321410838 4.14310472322957 0  4.795146539102229 0.46875 0  4.767156345199235 0.7178596932040019 0  0.2048534608977711 4.53125 0  0.232843654800765 4.282140306795998 0  0.5393715189906129 4.270810883024032 0  4.329922600274667 0.2750645887059072 0  4.275515096738972 0.5448389557295173 0  4.477747423652795 0.7252838358993123 0  0.2002829820452772 0.46875 0  0.4352678571428572 0.6956845238095237 0  0.5007241582667088 0.2123388122114133 0  4.672890923830735 0.2500902110494848 0  0.4308009280819452 4.783624996516437 0  2.104871305393774 4.438653689007242 0  0.2274454167838428 0.2274454167838428 0  3.446466574593436 0.4359605369011901 0  2.12354112127588 1.217588426759619 0  2.309175236825235 0.7888355970690434 0  2.556178570281936 1.054299163237582 0  0.578683248637
[...]
<PointData  Scalars="f_10845-1"> 
<DataArray  type="Float64"  Name="f_10845-1"  format="ascii">1.8815598671013585e+05  5.5293844738776532e-01  1.4557089285306328e-02  1.3757661329549177e-02  3.3856695756361174e-02  1.4458868525367985e-02  2.3813852852639920e+04  2.6435136834647522e+09  3.3187629552208081e-02  -1.5464338435158252e+04  4.4951125980293667e-02  6.6281040002763883e+04  3.8253325565003030e+07  1.4532358312754280e-02  2.4198101632941831e-02  1.4447433391153740e-02  4.6962381211635125e-03  2.5625299392259989e-02  1.7375154172049791e+06  3.8697667490747566e-02  2.4066933332199864e-02  -5.9406561453646809e+01  3.6729377915850403e-01  4.7865078114709032e-02  2.1000732597522873e-02  1.8847891770811102e+08  3.1687386687889500e-02  6.1302911529322295e+05  1.9489712479156585e-02  2.0650383175029277e-02  4.3561685975480033e+06  2.7057803437728602e-02  -5.7384048857376570e+02  1.8100631031693178e-02  3.3382342958447039e-02  -4.0394128513720506e-01  2.6302776687119452e-02  3.0114055824948156e-02  2.9147773648871320e-02  1.9245862863205031e-02  3.6628881040392747e-02  2.0011468671446493e-02  7.6798555115578704e-02  3.0163860017672914e+00  1.4441676716971002e-02  1.5177952211144782e-02  -1.4485084645548377e+06  8.4190883383355564e-02  2.4555777293992605e-02  2.8904367051758102e-02  3.8648566611982405e-02  1.2116253497968930e+05  1.9343495753827850e-02  1.4423850064557209e-02  -3.1033933987285234e+07  4.9897664265250039e+08  5.6363317526944200e+04  1.4569310354318857e-02  3.0713498708316344e+06  1.7192067211036232e+02  1.4397549585550864e-02  4.1927304350309745e-02  -2.8033740155580051e+02  1.8888806712958839e+02  7.4244019421801630e-02  5.2199542259936579e+07  -1.0685439577379600e+04  2.1378401862088017e-02  1.0014579152333336e+06  2.3743389972970510e-02  3.0869064749502375e-02  2.9866281210341208e-02  1.5067535279672480e+08  -1.1570821262438427e+00  4.9547992321713884e-02  4.2515940447024898e-02  1.8045335461365983e-02  1.7941631315793311e-02  1.9114584965220595e-02  3.1375258379325165e-02  -7.0181700019541118e-02  3.5324807077772913e-02  2.3946973716426369e-02  2.8144982336131476e-02  2.3868186789419106e-02  1.7222702093292522e-02  1.8083392531301441e-02  9.7654370778046567e+06  8.1682662057297882e+06  7.8765527989383542e+05  2.1739424469736039e-02  1.7776424219545246e-02  2.2320695114012072e-02  1.6952974758353351e-02  1.1504894759505795e+05  -3.5232243059304231e+01  1.0287329650736576e+09  1.6876021491151069e-02  4.6120120171392327e+03  3.5177842030357709e+05  2.7018613036110251e-02  2.0774893376074258e-02  1.9299308492314385e+06  3.0346601934091007e-02  2.7421218608221366e-02  -1.9764182531694230e+00  -6.5374356908985123e+05  1.2457358565573328e+02  2.0764963995702782e-02  6.5996882960722103e-01  2.0021625993952133e+07  6.3384628340501286e+07  1.0895973897008493e+06  -5.1394267203299231e+00  3.7199423246285480e-02  3.5872372680506748e-02  3.4634812061039653e-02  2.1191326319037741e-02  2.2022577153139381e-02  2.6962290060131150e-02  -6.3989322884059831e+04  2.7529872640805406e+05  1.5215428813488979e-02  9.0911438639010272e-02  3.2922978459091673e-02  1.4249324745902233e-02  1.7280370483982235e+00  3.7531294355710720e+03  7.9617461598779993e-01  2.8318867352454476e-02  4.0287397732756643e-02  2.6815524202340135e-02  -1.3999545977176413e+03  2.9046356565442469e-02  2.4565625442036988e-02  2.0506515540637670e-02  -7.3863335858012036e-01  1.3816262162953877e+04  3.1436883166159328e-02  -4.5823752634911119e-01  3.9215782368102310e-02  3.3635299244316262e-02  3.6162506679757393e-02  3.4871564776965638e-02  1.6837086118729340e-02  1.7204065920633956e-02  1.4834646499173005e-02  -2.0420019130361994e-01  3.1940505211666536e+07  1.9410387952479104e-02  3.0826079682319908e-02  2.0008075385685500e-01  4.1439089554847000e-02  1.7932622223104745e-02  3.6264105109837803e-02  2.4379880927709128e-03  2.1811057223465838e-02  2.2981737868300229e-02  2.6532299960045920e-02  2.4424090464080020e-02  1.6676028066485001e-02  -1.0777979208234725e-01  1.6934007959736045e-02  1.6947397564732354e-02  1.4591783033911050e-02  1.6226530635117146e+05  7.1265186040748202e+05  2.1407361461472545e+07  -2.4024615167535567e+03  4.1684724598848070e+06  4.5945789205328408e-02  4.3758778064635899e-02  2.4391652224905816e-02  2.3243919009598971e-01  5.0875649145484947e-01  2.0253290329918305e-02  4.0264366214364709e-02  3.7638230077509119e-02  1.3579146559742063e+04  -4.5384210805801723e+02  1.7293163664520808e+05  4.7315738192203222e+04  1.6941939030003323e+04  1.6774672566702752e-02  6.9264799481462935e+04  7.9212015217408902e+04  1.4418255576283538e-02  4.4092225895370539e+04  1.4458443125848295e-02  1.4443029254913854e-02  2.1752626627784981e-02  1.4580298467327972e-02  3.1373761918810895e-02  5.1489785825969241e-02  9.0699249034005459e+02  1.1889801192422206e+09  1.5260910868046191e+08  8.3447494161951523e+06  1.4431199437622189e-02  1.4445146280073486e-02  2.2055334458026900e-02  4.6716892772421557e+08  1.6191576025898956e-02  -8.5356769920405711e+01  1.5563965590174043e+08  2.6687106303666398e+07  1.5645646375375569e+07  1.7673692866631318e+06  7.1445824607475228e-02  -5.6569122210967942e+02  2.1949128256709721e-02  2.2639796315378757e+04  2.6234320449229940e-02  1.8957779551129497e-02  2.3347098213570831e-02  5.0955603377440102e-02  2.1627494434279151e-02  -4.0770033979587890e+00  2.9789524361658239e-02  1.9873193007853718e-02  2.5958814070541257e-02  3.1228212668342330e+05  2.3661877183345611e-02  1.9677723884982786e-02  1.4974963613758173e+06  2.3070112899411448e-02  -7.9898955667873639e-01  -9.7047003202489007e+05  3.9596712662948758e-02  2.3890679501450744e-02  3.5024756490583883e-02  1.8703889213974000e-02  1.6941164474679866e-02  2.9757257750121897e-02  2.5985546107254814e-02  1.7577817330031240e+05  3.7118708874120498e-02  3.1720320854763395e-02  2.7680515322764387e-02  1.8637995849333240e-02  2.5818213417517596e-02  -6.6476253116923605e+00  5.3690045821908802e+07  2.9248514420609915e-02  3.2469215264116745e-02  3.2831710170078042e-02  4.2926474243276135e-02  2.5308651263073884e-02  -9.9310999691998178e-02  2.2003861869445654e-02  1.7054897138559053e-02  9.1290603980905504e-04  3.0417746479354836e-02  3.4505431064667483e-02  5.8983175128907487e+02  2.8923454117861860e-02  8.3524230271116850e-01  -1.6506694588515824e+01  3.8614716881587428e+00  2.1687132857942829e-02  3.2536270915172650e+06  2.8233843418890080e-02  4.5832565083527123e+05  1.9997331135476991e-02  3.2995057780633115e-02  3.0873433482159696e-02  2.9911272164324598e-02  -1.0686421518625451e+01  3.7480584157356438e-02  1.0166263944040685e+06  2.9037437903321604e+05  2.4047800895901111e-02  2.5605630306079163e-02  4.7003959717756394e-02  4.4049820597668189e-02  2.3123974199131255e-02  2.8170488836460426e-02  1.3347650258601995e+05  4.0729220166710843e-02  8.7095109367344961e+07  3.0044648592704457e+08  4.1337742729684296e-02  8.6138438446752446e+02  2.5450667635279436e-02  2.5885519861048315e-02  1.8632210408888780e-02  1.6242216111679347e-02  4.4023119869776862e+06  1.6092968340464454e-02  1.6340190578672021e-02  1.3157705058897953e+06  2.8461322969637145e+06  2.8627137656067479e+06  1.9688076347874704e-02  2.0091010228496919e-02  1.8526562412957109e-02  1.7412345922307524e+00  -4.2056417003685592e-02  1.0813446935965222e-01  1.7061334905103760e-02  3.5916076463797770e+05  1.9052503231174508e+05  3.1143475686361954e-01  2.6415116871356451e-02  3.6715641219920526e-02  3.5294958068705563e-02  3.3385873809688320e-02  1.1629782056075502e+07  2.7583102216877778e-02  -3.6701494730343276e+00  1.9924466025868550e+07  2.3274595279967392e-02  1.6432987242539668e-02  1.6203290033780276e-02  1.6065358456096593e-02  4.3543292689483863e-02  6.4299810080681741e+06  2.1393533267035343e+07  2.9347739045569116e-02  1.9352037274972349e-02  2.9148030375665129e-02  2.4588240427556245e-02  -1.4258132653707749e+01  -1.1649249769217893e+04  -8.0413436859977855e+02  1.9525818404740377e-02  4.0031272567615475e-02  1.8631130071954015e-02  2.2406268543648062e+02  -5.9172471053897543e+06  1.6190761591291850e-02  -1.6608238414448992e+04  -4.3975229673393630e+02  2.0971193950104480e-02  2.1789008685868815e-02  2.2334500276630243e-02  4.9503923304914038e+04  5.1438289724357784e+08  1.5487476627882574e+09  1.5619978407285288e-02  1.8186444454489931e-02  3.4782910887556151e-01  2.7704305590568943e-02  2.7396000084475160e-02  2.0727159582333048e-02  2.5306869292607174e-02  1.5645380587422757e-02  2.6304473214153745e-02  3.1260381281735070e-02  1.8681400507798255e+05  -5.8977428526460085e-01  2.4533347361499006e+02  4.9325135517565150e-03  -2.9414428487160322e+01  2.7476470435156920e-02  2.7522014277237338e+08  -3.4526776674017304e+08  1.5620849772536380e-02  1.5691025516563952e-02  8.5231078755784893e+03  3.7946221830033680e+05  1.5036494190826900e-02  2.2385115380396194e-02  2.0008666090443186e-02  3.1579267646729622e-02  1.6331262337193973e-02  2.9433904466723088e-02  2.1940489771543049e-02  1.1874202472823758e+06  1.6073536920302248e+05  3.1829553367017371e-02  8.0644596762669146e+08  6.2319805225502185e-02  1.9231475312869617e-02  2.7708312679504132e-02  4.7649164482996893e-02  3.4599370055728801e-02  3.4554821027871640e+02  -1.5402654729371676e+00  3.8941542742051687e-02  2.7641322553691196e-02  3.7046415288804875e-02  2.2554938907529451e-02  -2.8857735751433101e+01  -1.4660832446420219e+01  1.0573126343387518e-01  6.8604298489648227e+02  1.6732457278877209e+05  1.7857058213563124e-02  -9.7860434083678086e+01  3.3653664870667580e-02  4.4904448333056152e-02  7.0652953524125891e+05  -2.2290022411760317e+04  5.7639045692302791e-02  1.9424477617915731e-02  3.0360328866913238e-02  2.7796700161365741e-02  1.7574005426426863e-02  -7.5965477789997449e-01  3.1896279523255160e+01  4.4805603880233066e+06  2.2780879533321280e-02  2.0208459855968683e-02  3.4008972351117245e-02  2.0472298067709473e-02  2.8437855917388850e+00  -3.3755596384718531e+05  -1.1883660068097981e+00  1.5666100306840767e-02  3.4695818052302284e-02  3.3990685817997926e-02  3.5044523629237996e-02  1.9249374971914132e-02  6.7136923865327135e+07  3.3578519368440747e+07  2.5311329325208944e-02  -4.7793020456135354e-01  -5.0260753418601422e+02  7.0918039492265554e+04  3.5018396548854948e-02  7.8587424293643543e-02  2.3676250749581844e-02  -5.6164430474733906e-01  -5.8524056958284556e+04  -6.7031406370753932e+04  1.6952262194432691e+07  2.5543076260464360e-02  2.3360444545546120e-02  2.2012509198534602e-02  4.3011995688345094e-02  5.2725263329815517e-02  1.2336003085617155e+05  4.5223732152082282e+05  2.1626904420825287e-02  3.3539522881896024e-02  4.9105437680977993e+06  3.1483238022667739e-02  -3.6402846149348682e-02  4.2132647013021961e-02  1.7979025020444184e-02  1.2533824743737522e+08  3.6010834967218033e-02  2.4978262870786659e-02  1.5926797030953697e-02  1.1368021914271702e-02  2.7094550300670338e-02  3.1362514652224636e-02  3.8227993313569554e-02  1.8164378368515328e-02  -1.3781220029387065e-01  7.9607980364586907e+06  3.6506783799364091e+00  1.6759688159221565e-02  1.8520251261128811e-02  5.0807297836250313e+04  3.7538709872918408e-02  -1.1723413517016402e+01  5.2939769981150755e-02  2.5543532452072559e+04  2.8486528378381878e-02  2.8587758044899308e-02  -3.4500640361573629e+07  2.0572668156752086e-02  2.1009471120655845e-02  -2.2444669791127671e+06  3.9684098066435405e+05  -4.0525784209820648e+02  2.8672267663872094e-02  -2.0710925355239787e+01  2.3152897459082649e-02  4.1287927141474418e-02  3.9367061185216566e-02  3.5064107743290003e-02  3.2309233624404000e-02  3.2318433221069150e-02  2.0819402278784435e-01  -2.4589289986141414e+00  2.6711013681810454e-02  5.2497798525685369e-02  9.3923901374982830e+04  1.8426226535356579e-02  1.8066732787269453e-02  6.4624718845741812e+05  1.4214934032511148e+03  2.0650422582212510e+01  4.1779255084453841e-02  3.6272545119330091e-02  1.9237656361231245e+01  2.1588270630381051e+06  -1.1807714096049973e+04  3.0346811329493909e-02  2.0559999465658119e-02  2.9552591265247015e-02  1.4424111689969422e-02  1.7042197709483016e-02  2.3470128351312323e-02  2.0102810670446385e-02  2.5975015753761545e+07  1.9900273478390844e-02  2.2391299839770791e-02  2.8109125417689167e-02  3.3998240024215594e-02  5.7552358655663473e-02  1.4553205504626637e-02  1.5865035971051013e-02  9.9440602150873834e+04  3.8566776622873243e-02  4.2721538998312250e+07  7.0152228717153966e+07  2.5107316823015053e-02  1.6759896721429576e-02  3.7736281386757997e-02  -1.1916960423433981e+01  3.7836820037192083e-02  -7.5023029469209496e+02  2.2447210449152460e-02  7.9053872296532840e+07  1.0004254716575978e+07  1.6153638355408597e+05  1.6573355927945190e+05  3.5768280837257187e-02  4.0557583649774992e-02  3.2418875647660397e-02  1.7515268287671640e-02  9.7290701797233871e+05  1.4335424179719528e+06  2.5825379056164628e-02  2.4856591314576952e-02  2.3507703830795399e-02  8.3246839712314745e+06  1.9955261932871289e-02  2.0534776732435724e-02  3.4201983639461087e-02  1.4510513314540698e-02  2.0790391428786362e-02  2.1163374496735499e-02  2.2650625942878481e-02  1.5615937768325717e-02  1.7427226224040183e-02  1.5801413356980990e-02  1.4525902101960796e-02  4.6431859707241791e+04  2.0435023084797829e-02  -1.4593234383944096e+05  2.0191418083213393e+04  2.7620110550039441e-02  -3.4749470151101240e-02  -7.0472680180433747e-02  2.6914360644017848e-02  1.5547045028585008e-02  1.7710317914421739e-02  3.2144357207829648e-02  3.1097457343776273e-02  1.7468196799173059e-02  1.7383200063623700e+06  -3.3016174387896353e+03  3.8899544298655248e-02  2.2738547607918772e-02  2.2457372423959273e+05  1.8363977120254022e-02  8.2380557419856143e-02  5.4012083489375573e-01  -1.0113434358965662e-02  -5.4288587005941515e+01  1.5748390770243228e-02  2.5727360283455077e-02  3.5201280240767989e+06  1.5737767819628674e-02  6.7161096520122478e+05  2.9648509333108072e-02  2.6698571647181136e-02  -2.9379595885717937e+00  1.5368498171809826e-02  2.9067582919738183e-02  1.5759124986904717e-02  1.5676219032760803e-02  -4.5541713380487845e+03  -6.4650085924132331e+05  3.6272627859542314e-02  1.8115686709038990e-02  1.5651801435848912e-02  8.0819301728410763e+04  2.4283109645564432e-02  4.5690869669600502e-02  2.8681474730708034e-02  1.4445834947982218e-02  3.2818393590835396e-02  -8.3791995402320536e+03  7.5587670059875336e+02  2.6307257794580659e-02  1.4424795678441487e+06  3.3377963323055933e-02  3.6273029253101531e-02  1.8188605133855066e-02  2.4011211415672983e-02  6.6866608103460068e-02  3.3187224423753470e+08  4.3388246945204413e-02  4.4655660955577346e-02  4.2999264687347792e-02  4.3519754837048424e-02  4.6634837280301121e-02  1.5685068044609046e-02  1.4438481005720923e-02  3.0847172051914430e-02  4.8606497693288819e+00  3.2129474324379369e-02  8.4273535779885799e+07  2.3657832907054073e+00  2.4998918150325421e-02  1.7273093297596936e-02  3.7413896214117920e-02  1.9072931111886696e-02  1.8346180663095801e-02  1.7669884281850547e-02  7.0923155410883187e-01  1.8963904143010999e-02  3.6306030906747416e-02  2.1124533194583583e-02  3.0465815375984855e-02  2.7765457667530209e+03  5.2127940237941373e+04  2.2132104458486593e-01  2.5265860859937522e-01  2.0564867879758437e-02  3.2592544060185552e-02  1.6927140669784013e-02  3.9610468976403385e-01  5.4484394017680539e+06  1.5612133688151182e-02  4.2389799740939649e-02  2.5072985224982039e-02  2.6912419548379647e-02  2.1322510821570044e-02  -1.0446262175850368e+03  3.6521490094386162e-02  1.4191252539509319e-02  8.4019344438532928e-02  1.8943648490989319e-02  2.1696965361589587e-02  3.7917433400073496e-02  1.9902026322330405e-02  9.1279892721778688e-01  1.6270015162816218e+08  1.1113275197371852e+06  2.4691679740344458e+06  -7.3395031136302714e+02  2.1119886179122905e-02  2.6479047865341911e-02  2.8212041073953135e-02  5.3470381053742098e-02  6.7231126015238396e-02  2.2777029960159043e-02  1.6816987261845794e-02  1.5555106047839480e-02  3.7177880757072102e+06  1.4657557898042991e+09  2.0414083946922126e+03  1.5569168563384342e-02  3.5012428254043951e-02  1.5065059927375259e-02  6.3120955819488932e+04  1.5284321462194954e-02  3.5954528125932283e+05  1.6518415064994452e+05  1.0364393310610772e+04  2.8469064811094576e+08  8.0391226538451083e+04  1.4412016070756713e-02  2.5375578156484335e-02  2.7713284087649916e-02  1.4457554731563418e-02  1.4431506538250892e-02  1.4403555772619144e-02  3.0116686353634503e+07  3.4279170704060798e+09  1.6569915599425259e+09  3.3730300726867667e+04  -9.3187228961472822e+04  4.0016725003785086e-02  2.2961885708332474e-02  1.7983510920644071e+07  1.3688889904930070e+05  1.4784932337736062e-01  1.4529128875697432e+06  1.4600082102018883e-02  4.7558706488304917e-02  3.0157827291678319e-02  -7.3336513040654401e+00  5.4161616423109865e+02  -6.0639794762487528e-02  1.4355420167433294e-02  1.4102069662617768e-02  1.4421711876026234e-02  8.1730099962716067e+08  1.0037835749821667e+03  -3.0295071567735175e+02  1.4441559771880998e-02  1.4482908259895465e-02  1.4565047243845816e-02  2.3694792688374398e-02  3.1759674625912617e+03  -5.2665030946917728e+00  1.3211399787287446e+05  3.0293905718724406e-02  2.3230852151951196e+04  4.3748455266712581e-02  1.8345059148847181e-01  1.9679958812503950e-02  1.8251654081928591e-02  5.3668973304877930e-02  -7.2911587795102643e-03  -1.5211921902316653e+03  8.4746760972739346e+06  -2.8312326996370508e+01  3.6495260885603141e-02  4.8928496691938181e+05  7.3956329144516015e+08  5.1485607045445549e+08  2.8386203246593785e+08  9.7300296680166948e+08  4.6344878341742506e+03  -7.4847240575111300e+01  1.8069079129127134e-02  2.4837003370997097e-02  1.9049098111589836e+04  1.9384938329636590e-02  -3.3733487081470719e-02  1.5688104272941913e-02  5.0460752038048840e+08  2.7916800757978323e+04  7.3218903951034545e-02  -1.7480068744763610e+03  3.0526361788350772e-02  6.6203620741539274e+05  3.0641378360800713e-02  -1.3713597304095928e+00  -1.1858879423247857e+00  2.3420660212612358e-02  1.7535482065787360e-02  -4.5736537121280296e+00  1.9716324592968324e-02  1.8814962538658001e-02  1.4457171208630157e+02  2.6966250577115290e-02  3.9758607637763538e-02  2.6152491472746321e-02  4.3406786888276996e-02  1.8227971973367084e-02  1.1552178396812946e+07  4.2617490707677677e+06  4.4947793650936152e-02  2.3194184501732010e-02  2.2719370732875419e-02  2.1115409203439701e-02  2.1324706943593917e-02  1.7129694833814213e+06  1.1610773637069845e+09  2.3025122690092740e+01  4.5851900766927086e+07  3.2919275100123199e-02  2.9362607434605237e+07  2.1939585033723194e+07  3.1077152126541648e+02  3.0037557083734658e-02  2.4852443161944588e-02  2.4247227693140645e-02  4.9374220772939557e+06  -2.2881382728180481e+02  2.4254120317349344e+08  8.3346942908101514e+07  9.3669697089671537e+07  3.5437505186821427e-02  1.9590548196829455e-02  9.3497111293454553e+04  2.0277754294712584e+04  1.0967067308613148e+06  2.0942247963398809e+06  8.1687767814737232e+05  -4.5561677516386850e-01  2.8536615395732941e-02  3.0575751491043929e-02  1.8347419123633121e-02  1.5939693842018106e-02  1.9239152537649507e-02  -7.6270433995855612e+01  -4.2677899546633143e+03  1.1059335709425684e+07  2.8081106536973724e-02  2.2147918899811655e-02  3.9875632080124200e-02  3.2489721404616326e-02  1.9512497935963258e-02  -1.4616731912566538e+01  2.3783747723868476e-02  2.0397276637034865e-02  1.9752475537612463e-02  1.5674392956359393e-02  2.0402972944982996e-02  2.2277620866317436e+05  1.4233352568413615e+06  2.7132758877540280e-02  3.1480555782010887e-02  -1.9130505607428215e+05  2.2590961863985962e-02  2.2651864471662536e-02  7.8483344418209856e+06  1.7392681645067291e-02  3.4717294742903831e-02  -8.7986584136155246e-02  -6.2036869456612359e+04  3.2181584501390182e+04  5.9645376367131295e+05  1.4076573083122572e+05  2.2787695820924856e-02  1.6150085541074973e+05  2.2611551774043920e-02  1.7544925470961949e-02  1.7331137634206444e-02  3.1132249306323957e+06  2.8892858214523177e-02  1.6921953137664963e-02  2.0933556773277993e-02  4.1265693179190842e-02  6.036