<?xml version="1.0"?>
<VTKFile type="UnstructuredGrid"  version="0.1"  >
<UnstructuredGrid>
<Piece  NumberOfPoints="6486" NumberOfCells="12696">
<Points>
<DataArray  type="Float64"  NumberOfComponents="3"  format="ascii">0 2.5 0  0 0 0  2.5 0 0  2.5 2.5 0  1.25 0 0  2.5 1.25 0  1.25 2.5 0  0 1.25 0  1.25 1.25 0  0 0.625 0  0.625 0 0  0.625 2.5 0  0 1.875 0  2.5 0.625 0  1.875 0 0  2.5 1.875 0  1.875 2.5 0  1.770833333333333 0.7291666666666666 0  0.7291666666666666 1.770833333333333 0  0.9375 0.625 0  1.875 1.5625 0  0.642361111111111 1.163194444444444 0  1.341594827586207 1.883979885057471 0  0.46875 0.46875 0  2.03125 2.03125 0  0.3626104797979798 1.513178661616162 0  1.381740196078431 0.4564950980392157 0  0.9375 2.172619047619047 0  2.172619047619047 0.9375 0  2.096354166666667 0.4036458333333332 0  0.4036458333333333 2.096354166666667 0  1.684027777777778 1.163194444444444 0  0.3418803418803419 0.8693910256410255 0  1.642742622813391 2.162164207604464 0  1.275619849389031 0.8465650753054845 0  0.9136284722222221 1.434461805555556 0  1.732437511238546 0.3406962303960658 0  0.9714402568595876 1.029779313093998 0  1.52281746031746 1.485615079365079 0  2.1875 1.71875 0  1.06819722569879 0.2997236128493951 0  2.136114211309524 1.303478422619048 0  0.3125 0 0  0 0.3125 0  2.5 2.1875 0  2.1875 2.5 0  0.3200021620376328 1.192323085056694 0  0.6738456129277992 0.8304377375553881 0  1.757891808928991 1.861952730357003 0  1.5625 0 0  0.9375 0 0  0.3125 2.5 0  2.1875 0 0  2.5 0.9375 0  0 0.9375 0  0 1.5625 0  0.9375 2.5 0  2.5 0.3125 0  0 2.1875 0  1.5625 2.5 0  2.5 1.5625 0  0.7448220909826522 0.3003573636608841 0  1.027298850574712 1.871151477832512 0  1.331260495098891 2.197262878816185 0  1.207917681892289 1.582765010956622 0  0.4339993447432606 1.801186844743261 0  0.6337298768939392 1.443093039772727 0  2.049851190476191 0.6826636904761904 0  0.6584821428571428 2.219122023809524 0  1.89575676467455 0.9798457973793544 0  1.437570562095628 1.059380588255917 0  1.502090052505845 0.6987070896496241 0  0.2040860661083546 1.705323965099331 0  0.2083333333333333 0.46875 0  0.5070952039991439 0.2211150679997147 0  0.6916302856529919 0.5813591430410241 0  2.265625 1.953125 0  2.2265625 2.2265625 0  1.886424081252096 2.243391360417365 0  1.40625 0.202164758520858 0  0.2269345238095238 0.2269345238095238 0  1.152730869673694 0.5225850378741401 0  1.885631899587912 1.312095130148776 0  1.614808884009367 0.9049784971014416 0  1.890095442220658 0.5126535558463003 0  2.323168682795699 0.46875 0  2.268811725689575 0.2304742875213018 0  0.6002389442105756 1.967426444210576 0  0.1768313172043011 2.03125 0  0.2311882743104251 2.269525712478698 0  2.03125 0.176831317204301 0  2.280262553344767 0.6954945504579233 0  1.979219539285994 1.809922269642997 0  2.336309523809524 1.09375 0  1.09375 2.336309523809524 0  0.9314042474388009 1.662973812215543 0  0.1634067999087722 1.40625 0  2.337090640094896 1.40625 0  1.141616997467638 2.069311773587991 0  0.46875 2.338939559681489 0  1.542440307908715 1.734944797244472 0  1.556713687786879 1.956977865354753 0  0.8264238995344066 1.975424467820646 0  1.466326331454725 1.275271369760862 0  1.655675324257095 0.5444159974393489 0  0.3385416666666666 0.6479255698005697 0  0 0.78125 0  0.5236073939200119 0.984090461540625 0  2.091665741047893 1.519793517904215 0  1.71875 2.5 0  0.5356538886262603 1.623137930505009 0  0 1.09375 0  0.1932884281517095 1.015625 0  0.8569313582417669 1.2198915584249 0  0.8876981284879677 0.8329884081524883 0  1.115618488474214 0.7219586973356271 0  1.186950366204949 1.043465130075318 0  2.057459118787237 1.110823087309335 0  1.830651283878689 2.049810069572418 0  1.689107969301489 1.367247437031697 0  0.4921048768039656 1.298643370653124 0  0.8213975694444444 2.336309523809524 0  2.03125 2.5 0  1.049729400480002 1.283723261332814 0  1.308101375801673 0.6489479469700392 0  2.5 2.34375 0  0.4968777175037714 0.7562964879736076 0  1.40625 2.5 0  1.501347663534097 2.307027627307738 0  1.602813712048603 0.1926218191360736 0  0.8393082906308107 0.463778306132633 0  1.682663349152719 1.598471865581041 0  0.7774174680851571 1.560004941327907 0  1.554204170364662 0.3898593897892066 0  1.842184459051087 0.186443880058197 0  1.358107417651776 1.696381759610015 0  1.18859291992392 1.77598670078022 0  0.1875331222687418 0.7609599743339348 0  1.339536743965101 1.422080365801479 0  0.7788179348750389 0.9955343414928611 0  0.9062978492805438 0.1919636509126373 0  1.256007360640958 0.3160320559396114 0  1.09375 0 0  1.174986727221844 0.1594990293443933 0  2.34375 1.796875 0  2.318026474511116 1.589177949022232 0  2.34375 2.5 0  1.672742954892153 2.332882724550692 0  0.2683637361947215 1.874801596909639 0  2.174770749820102 0.5581009131310781 0  1.443279522965991 0.8870068372898454 0  0.3385416666666667 0.3571428571428572 0  0.78125 0 0  2.060421048269335 2.314363248763811 0  1.088078737088509 0.8967352118723447 0  1.087825368444708 1.454931510884769 0  2.018308232129541 0.8548495425854904 0  1.943987311736842 0.3246298523011434 0  1.71875 0 0  1.85337849796276 1.144833312386208 0  2.3486328125 2.1044921875 0  1.407588788651747 2.042968789119587 0  2.336309523809524 0.865366648092144 0  2.34375 0 0  2.5 0.15625 0  0.15625 2.5 0  0 2.34375 0  0.1638044648294291 1.242263417405867 0  0.356216654757926 1.032569427322806 0  0.3188217956111817 1.355736727000647 0  0.5924956460852111 0.36112522004736 0  0.6594216488965849 0.1603472116132387 0  1.841804599497131 1.72214349266521 0  0.15625 0 0  0 0.15625 0  2.115898634821499 1.894570904464496 0  0.7821877980253907 0.7129993435924866 0  1.003820447087786 0.4516053462784233 0  0.477562948779147 1.138333049293613 0  0.719493678605015 1.305655360135975 0  0.9772457618587566 2.020350128938537 0  0.8764738248887107 1.826219722709673 0  1.254787875123819 2.339010653832026 0  2.343597354852534 1.249982759769001 0  0.78125 2.5 0  0.46875 2.5 0  2.5 1.40625 0  1.09375 2.5 0  2.5 0.78125 0  2.5 1.09375 0  2.03125 0 0  2.5 0.46875 0  1.40625 0 0  0.46875 0 0  0 0.46875 0  0 1.40625 0  0 1.71875 0  0 2.03125 0  2.5 1.71875 0  2.5 2.03125 0  2.005424054645407 1.653223486966518 0  0.1538730573856537 1.559850281736677 0  2.33984375 2.33984375 0  1.166539506212474 1.922878979538754 0  0.3914885633949916 1.65887232812171 0  0.5795503163042564 1.766243562569382 0  0.399533125920212 1.946786875081388 0  0.7866324979014098 2.127719094551316 0  0.3654683023546834 0.1495701132219454 0  0.1527388747131078 0.6116379440619215 0  2.013737577140188 1.391056634712135 0  1.17635437372994 2.213329084238133 0  1.737118141866284 1.010577140843115 0  2.200707118087222 1.164723314085963 0  1.697018908736685 1.993548551451517 0  0.5387621649009668 0.6070503962352419 0  2.032805785855952 0.5330427622570983 0  1.082699501358059 1.667818725183932 0  1.503819781540653 0.5468420196858188 0  2.015409142866072 2.175941657590429 0  1.752057611265444 0.869642097111018 0  0.612251684107783 2.356045720700959 0  1.902817102342857 0.6607642211999982 0  2.159616561739693 0.7867739969338844 0  0.5120038350106624 2.197302352398502 0  1.888200216011548 1.919501662489862 0  1.495909909726654 2.16028358757309 0  0.489139876703609 1.443203008943564 0  0.8819175670410521 0.3301172743913011 0  1.882591144370812 0.8155965192707721 0  1.133979796994841 1.172526771862882 0  2.206217447916667 2.084147135416667 0  2.20361328125 2.36279296875 0  1.395746985657004 1.556054166359645 0  1.704383111516207 1.734750450338683 0  0.9575737847222222 2.36274223823052 0  1.035150984253136 0.1302833343179028 0  1.383966125325753 0.7651479963479179 0  1.64003252158672 0.6824316405528895 0  2.22550785055421 1.487078576356817 0  1.760964431499756 1.48495222505201 0  1.276460980673788 2.004207003584658 0  0.1341477688427096 1.828777507920502 0  1.542261434180652 1.155296658359034 0  1.334627911613854 0.9696897472490321 0  1.30794231473696 1.119420615785191 0  0.7028260459857245 0.4438906910721139 0  1.625757433094055 1.84268057552138 0  0.9818707849053143 1.165603626132254 0  2.0086489901463 1.243134585689553 0  1.934584460420609 2.374094051915812 0  1.798434376789567 2.38671361912528 0  1.206314791201715 1.382064292497919 0  0.6333752893366955 0.7023738550008095 0  0.7796219811205605 1.42573253164258 0  1.564399711917382 1.026040828857629 0  0.3385416666666666 0.4889012896825397 0  0.1041666666666667 0.390625 0  0.989112246382566 1.543537365516289 0  2.025724425454636 0.9846960595520872 0  0.6602885475034063 2.086117390485779 0  1.607130551925032 1.267198646640915 0  0.1317864544877056 0.8896173683400176 0  1.755387840017567 2.230364320056445 0  1.301540702984401 0.1216289692748247 0  1.433170657577442 0.3331052752740999 0  1.500459610550388 0.113513924782439 0  0.6494291520606965 1.029586599619295 0  1.010146149868299 0.794897284196169 0  0.3700844198238017 2.235390157870766 0  0.3360891767780704 2.36656279435396 0  1.876856241037701 1.437150669863757 0  1.778674102957329 1.245979347269706 0  0.5472829890977179 0.1005517127039925 0  0.4669074189005698 0.3416784232954367 0  1.472765289289269 1.850899166481903 0  1.555853593327178 1.608452097912802 0  0.6708955559113426 1.646561631116984 0  0.8164699620322933 0.5924479455478063 0  0.3167738989468366 1.758696809749795 0  0.2788007305565096 1.605499483471246 0  0.7821720982350511 0.181524936294752 0  1.376812251214195 2.313340247908297 0  1.785652202614777 0.5962261755537186 0  1.761467296310972 0.4679567244718574 0  2.2265625 1.8359375 0  2.3828125 1.9140625 0  0.5279531607054191 2.071552361614785 0  2.397573269551114 0.234375 0  2.383578172599618 0.3589298466020009 0  0.1024267304488855 2.265625 0  0.1164218274003825 2.141070153397999 0  0.2696857594953064 2.135405441512016 0  2.164961300137334 0.1375322943529536 0  2.137757548369486 0.2724194778647587 0  2.238873711826398 0.3626419179496562 0  0.1001414910226386 0.234375 0  0.2176339285714286 0.3478422619047619 0  0.2503620791333544 0.1061694061057066 0  2.336445461915368 0.1250451055247424 0  0.2154004640409726 2.3918124
[...]
<PointData  Scalars="f_124-1"> 
<DataArray  type="Float64"  Name="f_124-1"  format="ascii">6.6305310079065732e-02  7.3770758836197636e-03  4.3442305338217647e-03  3.4791275699105791e-02  6.2869023501023157e-03  4.3604636183002064e-03  6.6283548760969715e-02  6.8418157695795970e-02  3.8477141394598902e-02  6.9396000850902625e-02  7.3827765386209011e-03  6.6341149294706886e-02  6.7333413765160680e-02  4.2279392749050120e-03  5.2537037672847646e-03  1.0169425118801870e-02  6.1043270872993563e-02  5.4987416544954532e-03  6.7512428039982739e-02  1.4870724885849951e-02  1.9394431651884838e-02  6.7063852535753504e-02  6.2620451342068117e-02  4.0593455151441429e-02  3.6566384909061292e-02  6.7980058577752106e-02  6.1462073779256741e-03  6.6850306213590324e-02  4.7807556918733306e-03  4.8627765762894225e-03  6.6973075871800222e-02  1.0767518273372313e-02  6.9014121781750717e-02  6.0521436023820097e-02  1.1963192589237382e-02  6.5017100285383711e-02  5.4508483320030192e-03  4.3377064894265377e-02  3.5444552875263595e-02  1.3429519306707795e-02  6.6996521263442913e-03  6.2026222272535680e-03  7.7485053393396850e-03  4.5925601429564526e-02  2.1203228431357087e-02  5.0015550100504083e-02  6.8512320912657507e-02  5.3680300140269151e-02  4.2969506174628858e-02  5.7384514221862281e-03  6.8453637825233891e-03  6.6295433032019804e-02  4.7611432776648067e-03  4.2134576944168481e-03  6.8888067556713506e-02  6.7901960283133445e-02  6.6339306930229172e-02  4.2796074103164583e-03  6.6798950650374278e-02  6.5428904811539346e-02  5.5200947689176081e-03  8.1350423068558813e-03  6.6861134814175771e-02  6.5986103324664827e-02  5.9081822962919223e-02  6.7503496413597375e-02  6.7956089097259961e-02  4.9311715825166875e-03  6.6770460367504905e-02  5.6574687689689776e-03  1.4666468570545167e-02  6.3018563410400154e-03  6.7663286200018435e-02  6.6800219271155162e-02  1.0244658663038170e-02  2.8164350093605919e-02  1.9620771480415369e-02  3.5943154602604298e-02  5.4200507423453982e-02  6.0177179768500745e-03  3.1371716739647677e-02  7.1490959999080325e-03  9.9210506688368130e-03  7.0858171239831114e-03  5.1908124719666597e-03  4.4833364650785712e-03  4.6038412589300059e-03  6.7215632014766727e-02  6.7069855815821686e-02  6.6659347054650611e-02  4.9875159958992854e-03  4.5444243476688382e-03  2.6967308851000418e-02  4.5286709502550104e-03  6.6548230129462871e-02  6.6852730487173398e-02  6.8165774829659978e-02  5.4528761569668282e-03  6.6654124902376197e-02  6.6561296763154448e-02  4.8888096061462445e-02  5.7582014052032005e-02  6.7189314567259087e-02  2.4819695383966781e-02  5.6436343618642797e-03  6.6837790003151445e-02  6.9145224497604407e-02  6.7375271965626787e-02  1.0214564731555435e-02  6.3886426249196049e-02  6.7786387835797504e-02  6.8649328378903224e-02  6.8790555471531609e-02  6.1740677282197509e-02  3.3994894043035427e-02  1.2186319860766700e-02  2.8048166807878146e-02  5.4630698178471685e-03  4.8305541475026068e-02  1.8273464867648317e-02  6.8290424795873439e-02  6.6582792983616981e-02  5.6124043448126083e-02  5.4140557078675274e-02  7.0948595666961833e-03  2.8477898279101334e-02  6.2822200877639331e-02  6.6064203081893133e-02  6.5164298875136306e-02  5.6737044615035835e-03  1.0760174398991117e-02  3.1868065398635403e-02  6.7551209342692514e-02  5.7888424970066231e-03  5.2641017818193456e-03  5.6639709977759550e-02  6.4398072286795671e-02  6.9492620325854335e-02  4.3267091689066429e-02  5.6058453192534607e-02  6.9366068775180484e-03  6.3245966160159371e-03  6.5627208171159948e-03  6.4589914942022918e-03  1.1311632983561776e-02  7.5707006530071541e-03  4.1839537467350731e-02  6.2974723499997123e-02  6.7369815466792674e-02  4.7109635372099010e-03  9.0593651506584352e-03  4.4584114687509585e-02  7.1043833396617993e-03  4.9205632970498021e-02  2.3844724149891732e-02  5.9635622639168252e-02  5.0495868728826403e-03  5.1059930587322826e-03  5.4989867469011017e-03  7.3077204216448954e-03  2.3157974469490937e-02  6.3877045147245265e-02  4.4450077866823078e-03  4.5501528572322314e-03  4.3231691369562970e-03  6.6302688464430187e-02  6.6505133748884740e-02  6.8412939751067006e-02  6.8815207423674488e-02  6.8235689612610631e-02  1.5123193506002447e-02  7.4829058832999529e-03  2.9823429331736026e-02  7.2275433047988844e-03  2.0494582679200315e-02  2.4125734324121399e-02  3.2157484184569859e-02  7.7298193949673251e-03  6.8466045200839723e-02  6.7068632628573238e-02  6.7029284059643285e-02  6.7300886498237164e-02  6.6400471372926234e-02  4.7497220869015047e-03  6.6339308618905107e-02  6.6305095404777248e-02  4.6730646388449520e-03  6.6334269643795657e-02  4.2298147885906009e-03  4.2477667245517416e-03  5.0150837681022095e-03  4.2436785981468514e-03  5.9846775716491446e-03  7.6675488920773605e-03  6.7143494689045000e-02  6.8174321384546571e-02  6.7632085041762491e-02  6.7084339530332160e-02  7.2076687168111768e-03  1.4998282467354474e-02  1.7395138027626291e-02  6.7904434817624454e-02  3.5609730395636578e-02  6.6111229412906689e-02  6.7755278227506127e-02  6.7549405667833490e-02  6.7247935610637105e-02  6.6944407782095233e-02  1.1128493250406015e-02  7.0296214577885860e-02  9.0757676791847659e-03  6.6602997655160034e-02  6.9851982100165074e-03  5.0168230997544591e-03  5.2481398774456164e-02  4.8049691637733233e-02  4.9618851277959822e-03  6.4913187859572910e-02  5.9401583362228292e-03  4.5003362799478634e-02  5.8549948770675268e-03  6.6536750590701577e-02  5.1915520978217779e-03  4.7534250560771893e-03  6.6808624696407137e-02  3.8559753723332146e-02  6.3894952430778390e-02  6.8084228546486825e-02  7.4459090104875550e-03  5.2906669272821333e-03  4.1659524890033633e-02  2.9626950827339210e-02  4.3859100772991745e-02  4.7595595575090112e-02  3.9173388903779263e-02  6.6532589638098091e-02  6.7013248651748491e-03  7.7636240290810581e-03  5.7557822073744189e-03  7.3413734369121748e-03  2.1097728205447166e-02  6.5494899240742394e-02  6.7452373471178703e-02  1.4698309509109995e-02  1.4638557271147542e-02  2.4795307349481599e-02  1.5437179845773601e-02  4.9408974271870382e-02  5.2215677889288624e-02  6.9082052551883823e-03  5.6543835600889943e-02  6.1180701274105520e-02  5.0068681076197136e-02  4.7238634422572666e-02  6.7178700675609299e-02  9.9015229420165406e-03  5.8911910595829828e-02  5.6940711874957868e-02  6.5130626502361344e-02  5.1731043143455786e-03  6.7002086701139149e-02  1.7159722313832674e-02  6.9012235150251192e-02  5.8917362544024840e-02  6.2022606539254514e-03  6.0006644216250987e-03  5.8407839436225356e-03  6.4694497937403977e-02  2.1633716607218970e-02  6.6735820696198045e-02  6.6493775121124352e-02  1.3766303061471476e-02  1.0731650265404440e-02  7.6273065869208812e-03  2.3705894874631928e-02  5.7213885457314130e-02  4.0517467619289101e-02  6.7698132518136334e-02  1.9800694770638890e-02  6.7576139446552608e-02  6.7838970295481901e-02  7.2046466816427920e-03  6.6012459448797509e-02  5.4046281511609231e-03  5.4155875970680160e-03  1.6460221026421643e-02  1.3686863845602975e-02  6.7030054971955438e-02  4.4028472168469905e-03  4.4135225592689918e-03  6.6666701001663137e-02  6.6898127874474828e-02  6.6904040450573549e-02  4.7793194104337397e-03  4.8143345860826893e-03  4.6536431156304660e-03  3.1965170490856669e-02  5.1163145959786403e-02  1.2107355322564788e-02  4.5181790001771740e-03  6.6442744038623866e-02  6.6731680958035708e-02  1.5524839697713821e-02  5.4806495629384369e-03  9.8188924293931990e-03  6.6031068993470648e-03  6.5419043334051900e-03  6.7163601145195484e-02  2.7014501527236875e-02  6.2797955368135719e-02  6.7230328724861288e-02  5.1485337028148179e-03  4.4044713347080921e-03  4.3718441598533594e-03  2.7558096213752454e-02  2.7644377265135269e-02  6.7323444157187939e-02  6.7341507839137560e-02  6.7962232857636824e-03  1.0213688749554263e-02  2.6401010146905511e-02  5.2731494680945956e-03  6.7170891023177484e-02  6.7488039117774248e-02  6.6872387958820834e-02  4.7299565837872299e-03  6.9956844184965667e-03  4.7643343853649451e-03  6.6283862694977491e-02  6.8578386845809525e-02  4.3828656388206939e-03  6.9413256625477759e-02  6.7976212499496091e-02  1.8396491710679790e-02  3.2130067839014571e-02  5.0431735035467882e-03  6.6401050051884430e-02  6.8075527616816039e-02  6.8298564609113654e-02  5.4071410874489082e-03  5.4932424668617677e-03  5.4468588199080119e-02  5.6143810750376834e-03  5.9723914401164898e-03  4.8284468511052551e-02  5.3621648561312952e-03  6.9287395152006796e-03  5.8895752478050928e-02  2.1656706912635749e-02  6.6466306408075604e-02  6.1554502319792190e-02  6.9168605469449015e-02  5.7190571795484320e-02  6.7974346509211192e-02  5.6078824534817866e-03  6.7773647733724629e-02  6.8522461777034818e-02  4.6767385236880744e-03  4.4088939861734672e-03  6.6223151645048009e-02  6.6426338204880406e-02  3.5191284998113199e-02  1.4175766853409346e-02  7.4860700353103242e-03  6.2600002692630120e-03  5.1269138525298998e-02  5.8127570963746019e-03  5.4977896832861167e-02  6.7025292305389519e-02  6.7172590144836467e-02  3.5139949428933615e-02  6.8053980961908817e-02  2.0675698824148575e-02  3.8207527430862386e-02  4.9454252438912487e-02  4.1377550914748103e-02  1.9338841637490042e-02  6.5706143042721585e-02  6.2865433169053409e-02  2.4607930097713341e-02  4.2504042213245122e-02  3.3830586478770595e-02  5.0853950938411748e-03  6.5477348704967381e-02  6.6041939965892901e-02  6.2681642103803697e-02  6.6808484200387944e-02  6.6872074391195843e-02  4.5745496758757397e-03  6.6719881122427910e-02  6.3871785196241921e-03  9.1299124395538989e-03  6.6762539272072818e-02  6.9076640709137813e-02  4.5119627300189077e-02  2.6478471784747434e-02  3.5431437156745245e-02  5.6197999279272281e-03  9.9667058793352342e-03  6.0515724011703423e-02  7.0757389135476190e-02  6.8807519351942167e-02  5.7680924992872260e-03  5.0033071820558125e-03  5.1864797180209539e-02  5.6981635953040465e-03  6.4811095106749761e-02  6.7862461345673850e-02  6.2486716993476597e-02  4.4259511461179563e-03  8.0720602855822755e-03  9.7219171416723926e-03  1.4705966705256524e-02  4.7056386286186049e-03  6.7656591856810153e-02  6.7913241845277528e-02  1.3936103762935506e-02  6.0639838087622785e-02  6.7645182521664696e-02  6.6317779926701417e-02  4.6693697118861732e-02  6.1712774261201919e-02  3.3488096232797096e-02  6.3503305211265876e-02  6.8131730256702078e-02  6.8451480628775568e-02  6.7401526913877352e-02  3.0497971729339449e-02  4.5997144040514984e-02  4.1567658460398609e-02  7.2293502511351247e-03  5.6179681088109418e-02  6.6437291281899957e-02  6.6640588746356644e-02  4.9670238022476833e-03  6.2915962645998741e-03  6.7148811178732989e-02  6.0163600057457920e-03  6.2145144752797352e-02  7.1925521787570617e-03  4.5656413905589633e-03  6.7613733181475288e-02  3.2898917343186729e-02  5.3162792835755391e-03  4.2578986797970474e-02  5.6346866815391791e-02  4.0719320045178996e-02  6.6127449539183465e-03  6.8949841459023022e-03  4.6567960227056355e-03  6.2721614449175414e-02  6.8648382084035897e-02  6.5369272479621487e-02  1.8393597948505730e-02  4.6275445567480972e-03  6.6332154846798247e-02  1.5350544062270693e-02  6.6604334965426254e-02  5.4537822945498367e-02  6.9173383177287953e-02  5.5262868803473128e-02  5.8242356063446582e-03  6.8364324343182487e-02  4.8774155801759103e-03  4.9324775651832112e-03  6.8207114767431229e-02  6.6680412793942850e-02  6.8547641592898778e-02  5.7668542877524643e-03  6.9709685708199617e-02  5.1156569114815184e-03  9.6804589553737292e-03  1.2301227667678641e-02  6.4868749100989659e-03  6.1775876637668549e-03  6.1512599416324535e-03  6.1763902923832395e-02  6.4445259570559105e-02  5.5992056841374066e-02  8.4469824891325335e-03  6.6298557095978636e-02  5.2097734517988541e-02  4.2908861054544410e-02  6.6658515748176453e-02  6.8132588148891296e-02  6.4856619950628747e-02  1.7210915680578493e-02  6.6158258867941152e-03  6.6053859742096474e-02  6.6915030491717042e-02  6.7798786422200219e-02  5.9554839685502818e-03  1.4009596438507695e-02  8.7360764616654304e-03  4.2194522498451067e-03  6.3130672304053800e-03  7.6588208877361201e-03  5.4111205190570479e-02  6.7301124767680728e-02  3.4018125795576545e-02  5.0395675520233385e-03  1.0752477475381675e-02  3.2315184923863337e-02  7.7476129304549770e-03  4.2284638773793853e-03  4.3439029847988989e-03  6.6443589090531982e-02  6.8397522348012862e-03  6.7436658199049843e-02  6.7511779078180248e-02  5.9503613669171142e-03  5.4061605070183705e-02  7.0511091262761760e-03  6.5505696364796806e-02  9.6124568744460973e-03  6.8494203056072067e-02  6.1938917480724703e-03  6.7482178088693653e-02  6.7180243186967900e-02  6.6407290769889604e-02  6.6436790414943797e-02  6.5555985241715978e-03  7.2721260664428836e-03  2.9430561102985059e-02  4.5128374006682655e-03  6.6804674582565851e-02  6.7319363884771444e-02  7.9668761429964353e-03  6.4439212939714644e-03  2.2283566025450629e-02  6.7085895176322519e-02  1.8639386162843028e-02  4.8340990590856102e-03  6.3528420275446099e-03  4.2308027976113109e-03  4.9548160844427305e-03  4.9242692982168178e-03  5.2527313860614685e-03  1.0455248222261140e-02  1.5116950118383803e-02  8.4467078661306667e-03  4.3383275117105493e-03  6.6737226445922615e-02  4.8226877042466306e-03  6.8669161429495806e-02  6.8646766273512863e-02  7.8011206007372914e-03  6.2135140516402537e-02  6.3232191195647311e-02  1.3355622584846988e-02  2.1927953318948642e-02  2.9506364883320740e-02  1.0959903036028604e-02  1.1676233133464211e-02  4.5277793264006929e-03  6.6810218619778983e-02  6.7252115040615582e-02  7.9385127874250713e-03  2.3198818086949031e-02  6.6625480043606827e-02  4.6471392324364414e-03  4.1108367157291971e-02  5.9074496280007313e-02  4.0584123492790253e-02  6.6195780396069437e-02  4.4026850902289753e-03  2.5357146932619513e-02  6.9005552238826123e-02  4.3296589754739413e-03  6.6556924717466007e-02  5.8289891063430122e-03  5.5679444472644330e-03  6.4635848743613944e-02  2.9440272457354841e-02  4.2637694672995281e-02  5.8699888009921118e-02  1.7886139574284050e-02  6.9325107937285177e-02  6.7943957416858616e-02  6.0442260916444168e-02  5.0343671391839141e-03  4.3112502762709280e-03  6.7434915994845523e-02  4.9629025318997551e-02  7.9764445589498682e-03  6.1104566413604762e-03  1.2212241207152719e-02  4.1910690044046267e-02  6.8906919617109083e-02  6.7884426735995804e-02  4.5221445003133347e-02  6.8359763213014901e-02  2.1402329209555850e-02  7.1119604062862066e-03  6.1627745071596548e-03  5.4629312745950263e-03  2.3325967324080762e-02  6.8233917853994464e-02  1.1166622855119664e-02  7.4180851592395985e-03  7.8881225947234172e-03  2.6380330642729335e-02  1.3428472828211153e-02  4.3544460309911095e-03  4.2274239537762335e-03  5.0156511979609776e-02  6.3045667426570931e-02  1.7704302558695709e-02  6.8107226300577667e-02  4.5814159409136697e-02  3.7443294405389238e-02  4.7035256147734735e-03  6.7163046416978053e-03  2.1043913054054376e-02  4.6044285576024085e-03  2.4193128347663923e-02  6.3885133476942010e-02  4.4451941042846478e-02  1.8282037425380732e-02  2.3585335546467408e-02  7.0836070369908535e-03  6.6270695451194100e-02  6.6492649330797612e-02  7.3434004087065911e-03  8.2832730200028837e-03  3.0120073830481878e-02  6.1292890667548686e-03  3.3375004505699628e-02  2.5050640168673487e-02  6.6922291428393649e-02  4.3201301243765838e-03  3.4460618431371957e-02  4.3634691939229371e-02  6.5752978110491453e-03  1.3484735607717877e-02  6.7187765602864352e-02  6.8193606562059533e-03  5.8954796941390261e-02  8.4837128208812406e-03  4.7107737651506977e-03  4.9606189264652109e-03  6.7812423472344216e-03  5.0965612121589999e-03  6.4051269966288640e-02  6.7694447629565530e-02  6.6887847023470490e-02  6.7070806079144993e-02  6.7116486596527331e-02  4.2340351344924289e-02  5.4823601563693935e-03  3.4819356053864346e-02  5.6398658197439062e-02  5.9890588907914995e-02  1.1922661732875017e-02  5.0122881280922921e-03  4.5116701504019502e-03  6.6928551575547959e-02  6.8415680590265218e-02  6.6037119705272471e-02  5.9593656529350466e-03  6.4180602599297849e-03  4.6141183974332506e-02  6.6342296024341343e-02  5.3274706004327703e-02  6.6392767840415076e-02  6.6309871997247236e-02  6.6196121086219209e-02  6.7772719199606923e-02  6.6344327565793754e-02  6.2678075942391625e-03  5.3598270917297498e-03  5.6220191036781102e-03  4.2841363370497779e-03  4.4699905948832920e-03  5.0225466435784372e-03  6.8765643260148876e-02  6.8529156969422397e-02  6.8305233847083563e-02  6.6317938167994958e-02  6.9310593006276552e-02  6.9720753638259671e-03  5.1373119388724358e-03  6.7221271107671898e-02  6.6296533795164661e-02  7.5947627199157959e-03  6.6638926095187304e-02  4.2986086105700171e-03  7.5453986996634097e-03  5.8732722915998195e-03  3.3746603077527047e-02  5.6968240433656406e-02  6.2593720747475046e-02  2.4730612744622550e-02  3.2286607210099641e-02  3.7768364636231372e-02  6.8026794784983066e-02  6.5802155968727447e-02  6.9382611676126263e-02  8.4217282635702731e-03  1.7800761613935196e-02  4.2603667725750385e-03  5.2213976361402950e-03  6.6389238192051794e-02  6.5723945110556112e-02  6.6426368921134543e-02  6.1341948759789811e-03  6.6347050534208446e-02  3.4413548524839320e-02  5.6187770201311084e-02  4.6165410882314795e-02  1.2897784755293412e-02  7.7958090066599919e-03  4.9665248494795339e-02  7.0002192808455987e-02  6.7110937260742937e-02  6.5400002869160229e-02  8.0226343889438258e-03  6.6965962370388876e-02  6.8053802848985379e-02  6.7915468066252940e-02  6.7805614432122685e-02  6.8280531220698937e-02  6.9803222152740124e-02  7.0036770456369093e-02  4.7536189646100570e-03  5.4667903015092945e-02  6.7017277979245379e-02  5.4497298448998735e-03  5.5114499481602533e-02  5.0178969692768307e-03  6.7951500805842252e-02  6.6850263649645789e-02  4.6914052418218492e-02  6.8935959218258194e-02  4.3052996324731842e-02  6.7123656122936207e-02  6.0255401949305875e-03  6.2158636648165108e-02  5.6475427323228161e-02  5.1449592932972790e-03  4.5578245544310673e-03  6.5812293257895962e-02  4.7814776648655169e-03  4.6469954418191829e-03  6.6699000660358942e-02  8.5520117271444176e-03  2.0551127908806033e-02  1.3720669345575916e-02  2.3590490053851547e-02  9.4483691514949258e-03  6.7690941728457799e-02  6.7591563503315535e-02  6.1887835993029716e-02  1.0460774950731132e-02  8.3764107932327789e-03  9.2325895710322192e-03  7.2670399151225310e-03  6.6899896893370808e-02  6.8175406569594268e-02  6.6237311294467582e-02  6.7529472217114070e-02  9.1362876835443512e-03  6.7380310999182139e-02  6.7312621878437492e-02  6.5773666073930440e-02  1.1146010040223737e-02  5.3516860295455791e-03  5.2415357536599550e-03  6.7027933385836791e-02  6.6525577194367039e-02  6.7864000831438717e-02  6.7802627771536603e-02  6.7632676134594602e-02  2.7094634871881237e-02  4.7521614448251823e-03  6.6632348122832571e-02  6.6500483059992788e-02  6.6777594185864042e-02  6.6839349127478159e-02  6.6707087044086441e-02  6.3932991515394125e-02  2.8558653237035873e-02  5.9443313039231806e-03  8.1881262369157878e-03  4.3424778582851218e-03  6.2365097205688566e-03  6.6180467850803573e-02  6.7732770288966612e-02  6.8463946155724847e-02  2.0600527438103346e-02  5.0383097669956774e-03  3.3101125296101201e-02  6.1464154159081253e-03  6.1428775215823010e-02  6.6642392557778082e-02  5.1863122615457289e-03  3.9739637271197108e-02  4.9559510074378074e-02  1.4872306098666665e-02  4.8250047349008380e-03  6.6383332968798642e-02  6.8091619086942751e-02  5.2735561448714628e-02  2.7617045157134475e-02  6.8324062787338533e-02  5.5759532326639237e-02  5.0546084094387718e-02  6.7430294902031659e-02  4.5054218060580666e-03  6.6538809580028212e-03  6.2347546943093142e-02  6.8051515199464591e-02  6.8190038228076691e-02  6.6657185948214209e-02  6.6421472295705386e-02  5.0711090371456848e-03  6.6368881282281411e-02  5.0698986091195887e-03  4.5946204493693063e-03  4.7587787454192662e-02  6.6943018620942457e-02  5.7427779078042399e-03  3.8775233529468545e-02  4.8951617952866381e-03  6.1163960788759797e-02  6.6632106018982021e-02  6.6761471445419010e-02  6.6877980941856568e-02  6.6599085795915600e-02  1.51072111160