<?xml version="1.0"?>
<VTKFile type="UnstructuredGrid"  version="0.1"  >
<UnstructuredGrid>
<Piece  NumberOfPoints="6486" NumberOfCells="12696">
<Points>
<DataArray  type="Float64"  NumberOfComponents="3"  format="ascii">0 2.5 0  0 0 0  2.5 0 0  2.5 2.5 0  1.25 0 0  2.5 1.25 0  1.25 2.5 0  0 1.25 0  1.25 1.25 0  0 0.625 0  0.625 0 0  0.625 2.5 0  0 1.875 0  2.5 0.625 0  1.875 0 0  2.5 1.875 0  1.875 2.5 0  1.770833333333333 0.7291666666666666 0  0.7291666666666666 1.770833333333333 0  0.9375 0.625 0  1.875 1.5625 0  0.642361111111111 1.163194444444444 0  1.341594827586207 1.883979885057471 0  0.46875 0.46875 0  2.03125 2.03125 0  0.3626104797979798 1.513178661616162 0  1.381740196078431 0.4564950980392157 0  0.9375 2.172619047619047 0  2.172619047619047 0.9375 0  2.096354166666667 0.4036458333333332 0  0.4036458333333333 2.096354166666667 0  1.684027777777778 1.163194444444444 0  0.3418803418803419 0.8693910256410255 0  1.642742622813391 2.162164207604464 0  1.275619849389031 0.8465650753054845 0  0.9136284722222221 1.434461805555556 0  1.732437511238546 0.3406962303960658 0  0.9714402568595876 1.029779313093998 0  1.52281746031746 1.485615079365079 0  2.1875 1.71875 0  1.06819722569879 0.2997236128493951 0  2.136114211309524 1.303478422619048 0  0.3125 0 0  0 0.3125 0  2.5 2.1875 0  2.1875 2.5 0  0.3200021620376328 1.192323085056694 0  0.6738456129277992 0.8304377375553881 0  1.757891808928991 1.861952730357003 0  1.5625 0 0  0.9375 0 0  0.3125 2.5 0  2.1875 0 0  2.5 0.9375 0  0 0.9375 0  0 1.5625 0  0.9375 2.5 0  2.5 0.3125 0  0 2.1875 0  1.5625 2.5 0  2.5 1.5625 0  0.7448220909826522 0.3003573636608841 0  1.027298850574712 1.871151477832512 0  1.331260495098891 2.197262878816185 0  1.207917681892289 1.582765010956622 0  0.4339993447432606 1.801186844743261 0  0.6337298768939392 1.443093039772727 0  2.049851190476191 0.6826636904761904 0  0.6584821428571428 2.219122023809524 0  1.89575676467455 0.9798457973793544 0  1.437570562095628 1.059380588255917 0  1.502090052505845 0.6987070896496241 0  0.2040860661083546 1.705323965099331 0  0.2083333333333333 0.46875 0  0.5070952039991439 0.2211150679997147 0  0.6916302856529919 0.5813591430410241 0  2.265625 1.953125 0  2.2265625 2.2265625 0  1.886424081252096 2.243391360417365 0  1.40625 0.202164758520858 0  0.2269345238095238 0.2269345238095238 0  1.152730869673694 0.5225850378741401 0  1.885631899587912 1.312095130148776 0  1.614808884009367 0.9049784971014416 0  1.890095442220658 0.5126535558463003 0  2.323168682795699 0.46875 0  2.268811725689575 0.2304742875213018 0  0.6002389442105756 1.967426444210576 0  0.1768313172043011 2.03125 0  0.2311882743104251 2.269525712478698 0  2.03125 0.176831317204301 0  2.280262553344767 0.6954945504579233 0  1.979219539285994 1.809922269642997 0  2.336309523809524 1.09375 0  1.09375 2.336309523809524 0  0.9314042474388009 1.662973812215543 0  0.1634067999087722 1.40625 0  2.337090640094896 1.40625 0  1.141616997467638 2.069311773587991 0  0.46875 2.338939559681489 0  1.542440307908715 1.734944797244472 0  1.556713687786879 1.956977865354753 0  0.8264238995344066 1.975424467820646 0  1.466326331454725 1.275271369760862 0  1.655675324257095 0.5444159974393489 0  0.3385416666666666 0.6479255698005697 0  0 0.78125 0  0.5236073939200119 0.984090461540625 0  2.091665741047893 1.519793517904215 0  1.71875 2.5 0  0.5356538886262603 1.623137930505009 0  0 1.09375 0  0.1932884281517095 1.015625 0  0.8569313582417669 1.2198915584249 0  0.8876981284879677 0.8329884081524883 0  1.115618488474214 0.7219586973356271 0  1.186950366204949 1.043465130075318 0  2.057459118787237 1.110823087309335 0  1.830651283878689 2.049810069572418 0  1.689107969301489 1.367247437031697 0  0.4921048768039656 1.298643370653124 0  0.8213975694444444 2.336309523809524 0  2.03125 2.5 0  1.049729400480002 1.283723261332814 0  1.308101375801673 0.6489479469700392 0  2.5 2.34375 0  0.4968777175037714 0.7562964879736076 0  1.40625 2.5 0  1.501347663534097 2.307027627307738 0  1.602813712048603 0.1926218191360736 0  0.8393082906308107 0.463778306132633 0  1.682663349152719 1.598471865581041 0  0.7774174680851571 1.560004941327907 0  1.554204170364662 0.3898593897892066 0  1.842184459051087 0.186443880058197 0  1.358107417651776 1.696381759610015 0  1.18859291992392 1.77598670078022 0  0.1875331222687418 0.7609599743339348 0  1.339536743965101 1.422080365801479 0  0.7788179348750389 0.9955343414928611 0  0.9062978492805438 0.1919636509126373 0  1.256007360640958 0.3160320559396114 0  1.09375 0 0  1.174986727221844 0.1594990293443933 0  2.34375 1.796875 0  2.318026474511116 1.589177949022232 0  2.34375 2.5 0  1.672742954892153 2.332882724550692 0  0.2683637361947215 1.874801596909639 0  2.174770749820102 0.5581009131310781 0  1.443279522965991 0.8870068372898454 0  0.3385416666666667 0.3571428571428572 0  0.78125 0 0  2.060421048269335 2.314363248763811 0  1.088078737088509 0.8967352118723447 0  1.087825368444708 1.454931510884769 0  2.018308232129541 0.8548495425854904 0  1.943987311736842 0.3246298523011434 0  1.71875 0 0  1.85337849796276 1.144833312386208 0  2.3486328125 2.1044921875 0  1.407588788651747 2.042968789119587 0  2.336309523809524 0.865366648092144 0  2.34375 0 0  2.5 0.15625 0  0.15625 2.5 0  0 2.34375 0  0.1638044648294291 1.242263417405867 0  0.356216654757926 1.032569427322806 0  0.3188217956111817 1.355736727000647 0  0.5924956460852111 0.36112522004736 0  0.6594216488965849 0.1603472116132387 0  1.841804599497131 1.72214349266521 0  0.15625 0 0  0 0.15625 0  2.115898634821499 1.894570904464496 0  0.7821877980253907 0.7129993435924866 0  1.003820447087786 0.4516053462784233 0  0.477562948779147 1.138333049293613 0  0.719493678605015 1.305655360135975 0  0.9772457618587566 2.020350128938537 0  0.8764738248887107 1.826219722709673 0  1.254787875123819 2.339010653832026 0  2.343597354852534 1.249982759769001 0  0.78125 2.5 0  0.46875 2.5 0  2.5 1.40625 0  1.09375 2.5 0  2.5 0.78125 0  2.5 1.09375 0  2.03125 0 0  2.5 0.46875 0  1.40625 0 0  0.46875 0 0  0 0.46875 0  0 1.40625 0  0 1.71875 0  0 2.03125 0  2.5 1.71875 0  2.5 2.03125 0  2.005424054645407 1.653223486966518 0  0.1538730573856537 1.559850281736677 0  2.33984375 2.33984375 0  1.166539506212474 1.922878979538754 0  0.3914885633949916 1.65887232812171 0  0.5795503163042564 1.766243562569382 0  0.399533125920212 1.946786875081388 0  0.7866324979014098 2.127719094551316 0  0.3654683023546834 0.1495701132219454 0  0.1527388747131078 0.6116379440619215 0  2.013737577140188 1.391056634712135 0  1.17635437372994 2.213329084238133 0  1.737118141866284 1.010577140843115 0  2.200707118087222 1.164723314085963 0  1.697018908736685 1.993548551451517 0  0.5387621649009668 0.6070503962352419 0  2.032805785855952 0.5330427622570983 0  1.082699501358059 1.667818725183932 0  1.503819781540653 0.5468420196858188 0  2.015409142866072 2.175941657590429 0  1.752057611265444 0.869642097111018 0  0.612251684107783 2.356045720700959 0  1.902817102342857 0.6607642211999982 0  2.159616561739693 0.7867739969338844 0  0.5120038350106624 2.197302352398502 0  1.888200216011548 1.919501662489862 0  1.495909909726654 2.16028358757309 0  0.489139876703609 1.443203008943564 0  0.8819175670410521 0.3301172743913011 0  1.882591144370812 0.8155965192707721 0  1.133979796994841 1.172526771862882 0  2.206217447916667 2.084147135416667 0  2.20361328125 2.36279296875 0  1.395746985657004 1.556054166359645 0  1.704383111516207 1.734750450338683 0  0.9575737847222222 2.36274223823052 0  1.035150984253136 0.1302833343179028 0  1.383966125325753 0.7651479963479179 0  1.64003252158672 0.6824316405528895 0  2.22550785055421 1.487078576356817 0  1.760964431499756 1.48495222505201 0  1.276460980673788 2.004207003584658 0  0.1341477688427096 1.828777507920502 0  1.542261434180652 1.155296658359034 0  1.334627911613854 0.9696897472490321 0  1.30794231473696 1.119420615785191 0  0.7028260459857245 0.4438906910721139 0  1.625757433094055 1.84268057552138 0  0.9818707849053143 1.165603626132254 0  2.0086489901463 1.243134585689553 0  1.934584460420609 2.374094051915812 0  1.798434376789567 2.38671361912528 0  1.206314791201715 1.382064292497919 0  0.6333752893366955 0.7023738550008095 0  0.7796219811205605 1.42573253164258 0  1.564399711917382 1.026040828857629 0  0.3385416666666666 0.4889012896825397 0  0.1041666666666667 0.390625 0  0.989112246382566 1.543537365516289 0  2.025724425454636 0.9846960595520872 0  0.6602885475034063 2.086117390485779 0  1.607130551925032 1.267198646640915 0  0.1317864544877056 0.8896173683400176 0  1.755387840017567 2.230364320056445 0  1.301540702984401 0.1216289692748247 0  1.433170657577442 0.3331052752740999 0  1.500459610550388 0.113513924782439 0  0.6494291520606965 1.029586599619295 0  1.010146149868299 0.794897284196169 0  0.3700844198238017 2.235390157870766 0  0.3360891767780704 2.36656279435396 0  1.876856241037701 1.437150669863757 0  1.778674102957329 1.245979347269706 0  0.5472829890977179 0.1005517127039925 0  0.4669074189005698 0.3416784232954367 0  1.472765289289269 1.850899166481903 0  1.555853593327178 1.608452097912802 0  0.6708955559113426 1.646561631116984 0  0.8164699620322933 0.5924479455478063 0  0.3167738989468366 1.758696809749795 0  0.2788007305565096 1.605499483471246 0  0.7821720982350511 0.181524936294752 0  1.376812251214195 2.313340247908297 0  1.785652202614777 0.5962261755537186 0  1.761467296310972 0.4679567244718574 0  2.2265625 1.8359375 0  2.3828125 1.9140625 0  0.5279531607054191 2.071552361614785 0  2.397573269551114 0.234375 0  2.383578172599618 0.3589298466020009 0  0.1024267304488855 2.265625 0  0.1164218274003825 2.141070153397999 0  0.2696857594953064 2.135405441512016 0  2.164961300137334 0.1375322943529536 0  2.137757548369486 0.2724194778647587 0  2.238873711826398 0.3626419179496562 0  0.1001414910226386 0.234375 0  0.2176339285714286 0.3478422619047619 0  0.2503620791333544 0.1061694061057066 0  2.336445461915368 0.1250451055247424 0  0.2154004640409726 2.3918124
[...]
<PointData  Scalars="f_16-1"> 
<DataArray  type="Float64"  Name="f_16-1"  format="ascii">3.8270397132367049e-05  5.4147592202924951e-09  1.3738266908626821e-09  1.1577139319507222e-05  7.0685737878923500e-08  1.1503566706150520e-06  5.6479295739282997e-05  5.5969879403087986e-04  1.1603041460359522e-03  5.5548530571873493e-04  7.1712044376261592e-08  4.2732652661692069e-05  3.5303525399241989e-04  1.1730980928142533e-09  2.5172992877796880e-08  2.1452943881170615e-05  8.8831670080929875e-05  1.3932604795847509e-06  4.6476652374174044e-04  2.2677917728933884e-04  3.7104597559570982e-04  1.1431448718166838e-03  8.3338928850563792e-04  1.3045887126837859e-03  2.8734778449002315e-04  5.3211499286143292e-04  5.8227341427498949e-07  1.8535605873457945e-04  7.3204526352210181e-07  9.9069872916393893e-09  2.1050256273753756e-04  1.5997748974930982e-04  9.7603096583729146e-04  4.2039757126277133e-04  1.7033028402861847e-04  1.1557349541793992e-03  3.7725635856662391e-08  1.3873657695556757e-03  9.6579511307913284e-04  1.1323785445015255e-04  5.3813860779847472e-07  2.7776280022933792e-05  4.2609569463444800e-08  5.6315699787139394e-05  2.4319381944220787e-05  4.2212982288701681e-05  5.9051403355589688e-04  1.8465298394982519e-03  7.0951499276176392e-04  5.0970428187308555e-08  7.6712184750996442e-08  3.7072741424391364e-05  7.0149657424704637e-09  3.9244891459299652e-08  5.6479476602251492e-04  5.1641281014525964e-04  4.2313473526601088e-05  1.0207033255506556e-09  1.4951069019630850e-04  8.3715150079268085e-05  8.6525813973296628e-06  8.3808316799717574e-06  5.1812026573053443e-04  2.6736456129873863e-04  1.2762225741100007e-03  4.1708726591637867e-04  6.6692127027668700e-04  7.7024915134375807e-08  1.3973040722377344e-04  1.0400137359951139e-05  2.8667812724813104e-04  8.4463748748933193e-06  4.6498176293123435e-04  3.0877740112793825e-03  1.5046301052652218e-05  7.2824871431868355e-04  9.5274736442382834e-05  9.0479083011711355e-05  2.4510868937853615e-04  6.4998693297116668e-08  2.5120407888206244e-04  1.0839750500427298e-05  1.2937921375448308e-04  3.5684320973140034e-05  3.7528621803370390e-08  2.6886606469017891e-09  4.0683493951264199e-09  3.0878243638216663e-04  2.4796390542683146e-04  1.0782552104859517e-04  1.3585608935376913e-08  1.2875495773189174e-08  3.6260302571560041e-04  1.0273570788835907e-06  1.0266780258919412e-04  7.3848398397187898e-04  5.4807195193317206e-04  1.2213603017691219e-05  3.3307352397871402e-04  8.3685883555237447e-05  1.0571368200534442e-03  7.6425813184878262e-04  3.2570896999161412e-04  6.6705162823633133e-04  2.5262410039607281e-07  2.1153092752098901e-03  5.6437777046824673e-04  1.2923653730020084e-03  1.0537152490337312e-04  9.6472760913486131e-05  5.1036178421913275e-04  5.6358805902343779e-04  5.7847810291065201e-04  1.4933758882269999e-03  1.0460700158629920e-03  1.5916378370636259e-04  7.9770359830177886e-04  1.1362614239192755e-05  4.6694760660438906e-04  4.1146644430031196e-04  6.5052888149011152e-04  8.8529469608131210e-05  6.9689280615870265e-05  1.4988343517115203e-03  1.7927749856562761e-05  1.8366703195505189e-05  2.0692124473225808e-03  6.8051721883893336e-05  2.0277286971055053e-04  4.7939688464050181e-08  7.2643359522679343e-05  7.6066032775502052e-04  6.8261353722266663e-04  8.5048611983739963e-08  2.5778164296064032e-08  1.1866035612967737e-03  8.8218439181691382e-04  7.3362689863363053e-04  1.2347290998594022e-03  1.7300911414356217e-03  2.0488203865689314e-07  1.7394939122439950e-07  7.4942095663877330e-08  7.9485763840070510e-08  4.9767074918903390e-05  3.3733563964825703e-05  2.3044366002331630e-05  2.0729765472496422e-04  3.6754117357062883e-04  8.2240121251259753e-09  8.6106425246989550e-05  1.3502326278746989e-03  7.7134905327748952e-08  1.2671511843789470e-04  6.1985932612474901e-04  1.3650258474510991e-03  9.5999485996928395e-07  1.8579705512352565e-08  3.8262153546816824e-08  5.4302817176631101e-05  5.8970543073548350e-05  5.4909110280658381e-04  5.9690573825985291e-08  3.2738763323599519e-09  1.2391029312445681e-09  3.7924095158677377e-05  7.2263261985350768e-05  5.6042158877454395e-04  7.1269116657651842e-04  5.5815548605048010e-04  1.3329655170523220e-04  5.0797262053054845e-07  5.4954837786249842e-04  1.8071945339955660e-09  5.9041073940537651e-07  2.0648464193143902e-04  9.5529616531926165e-04  1.5317090211275925e-05  7.9870146180916477e-04  1.0135512989589892e-03  3.2166542104465656e-04  4.7524440789057331e-04  1.2574133281408888e-04  3.7568087956561681e-06  4.1667167659296534e-05  3.8156426063043860e-05  3.5478330976965108e-06  4.6712159020837001e-05  5.0576028802010496e-09  2.3898989799002412e-07  1.4620519933987604e-08  8.9549241423084981e-10  6.1826067975888276e-08  6.2600120016202791e-08  5.1415422014097008e-04  5.4805120342747086e-04  4.5585189454570857e-04  2.5390194781066514e-04  1.5442856794989404e-05  2.4743568138778563e-05  2.5030045500860584e-04  5.1715431278867498e-04  3.9598318852778913e-05  5.6839386448968496e-04  4.9036900966203500e-04  4.4000181435196285e-04  3.1994960135501920e-04  2.0424147490182197e-04  5.0217700203530882e-06  9.3964615739424644e-04  9.6248390352691283e-05  2.0312506850407919e-04  3.9930977521030835e-05  5.5853818954166936e-06  6.5944329023112321e-04  1.7920432991932781e-03  1.8031137055809762e-08  9.5791495486326965e-04  8.7166209389407153e-07  2.2026876419765700e-04  8.6977846626929293e-06  7.7484482441767192e-05  1.7559402170838652e-07  1.1296790781536801e-07  1.5204334413971310e-04  4.9551793472550078e-04  3.8854756593965364e-04  5.7154009227407103e-04  5.2230218351333665e-06  1.6006381922883546e-06  1.2844451962334778e-03  1.2633708794805714e-04  6.2532612625990387e-05  1.2389272147321055e-03  8.0739444471595505e-04  7.9894918074619641e-05  8.3965286135187692e-08  4.0846897270593581e-05  2.0744355429989546e-06  4.1791686323366669e-05  4.7264376935825432e-04  5.2746323608626614e-04  3.9770725720514381e-04  2.9493098589098923e-04  2.7603564945368137e-04  6.7212439899770875e-04  1.8531906156581308e-04  8.9638902277913647e-04  1.5488671069193943e-03  4.4920484514494176e-05  1.3743669817680768e-04  1.5220869582554787e-04  1.4002934137806382e-03  1.6985734635507504e-03  8.9400726094050775e-04  1.2313178405288833e-04  2.7252891345209110e-03  2.7677976058631724e-03  1.0523483851641580e-03  4.0787479844895283e-06  2.2251588037905206e-04  3.8431496067192777e-04  5.7817463658817213e-04  3.1286128951679118e-04  6.9232338672215580e-08  9.4186502020963392e-08  5.5883959451215301e-08  1.5420868731073384e-03  5.1576393445772640e-04  1.2943084869525867e-04  6.9237808795549687e-05  2.3648120445865614e-04  1.5907813804030024e-04  2.1783173830809224e-07  3.2154294063978743e-04  9.6197361179088366e-04  1.0178592435822870e-03  5.2934384383929655e-04  3.8957576225751597e-04  4.3989059872899262e-04  5.0633821562564034e-04  3.9726208633847547e-07  1.6684306227793987e-04  1.8665148562881366e-07  5.3310296428448641e-08  1.1323112327491863e-04  4.4759094753066080e-05  2.3271837550645501e-04  1.8144760950881789e-09  1.9236670084778176e-09  1.1060249773793792e-04  1.8308445927307541e-04  1.8505153231289907e-04  7.4508339547440802e-09  8.2553371967238950e-09  4.8602678464779778e-09  4.3814555841963391e-04  3.5268039167200209e-03  4.7533230871646458e-07  2.9257142704698241e-09  6.0300132020352863e-05  1.6907655058025139e-04  2.5619181528925920e-07  3.7416762870330681e-08  7.5274217254414353e-05  1.3389144414145093e-06  4.2641187594111417e-06  2.8575244014685853e-04  6.8536192071162066e-04  1.5374648734741284e-03  3.1239270018313070e-04  2.0128780766054920e-08  2.5232415945807735e-09  1.0413978885003551e-08  4.1010154085686554e-05  6.4550062468610235e-04  3.6541486129075263e-04  3.5805353546124928e-04  2.3278747920999371e-05  8.4836612253418346e-05  7.0784608497744309e-04  2.8305147285482229e-08  1.5037668953000649e-03  5.7676532858625025e-04  6.2655356782004626e-04  2.5533645226734280e-08  8.3389320257250235e-08  1.6790225251795161e-06  3.1800853506888237e-04  5.6983393313466075e-04  1.7424426601881577e-07  5.8242135474527597e-04  8.3254090769103019e-04  2.1459881146231228e-04  3.4844543776813458e-04  1.7385170556970777e-08  7.3639118297390388e-05  5.4115196708474488e-04  5.5559472151146100e-04  9.7041688284230999e-06  1.3938762166917352e-05  1.6512307392073414e-03  4.4538617943251284e-08  7.6714133595904021e-06  3.3244227788241035e-04  3.0834904052138869e-08  1.9763224389830481e-05  5.8188771909730320e-04  5.5287945348057648e-04  6.3039990064731686e-05  1.4272333738204455e-03  1.2182577061367668e-03  2.3685153669848317e-03  2.2266910695772288e-03  7.2638986328035553e-08  4.9161428103704934e-04  5.6206669762509762e-04  3.5896979682376173e-06  9.7547652646131764e-07  8.7346219928692310e-05  5.7294945704237391e-05  2.0087499691900202e-05  2.1349917897540234e-04  5.2183382636235994e-05  2.9204692914645255e-06  7.1461983089926291e-05  5.8318229994842324e-08  4.8850507204906992e-04  2.5589270755864771e-04  3.9520007989717726e-04  1.0329696442888511e-03  5.3729700127115717e-04  1.2985337497205894e-04  1.5626665137469568e-04  1.1709773242125974e-03  1.2961561465297409e-03  4.4677739140005102e-04  1.0692987180854574e-04  1.7708063024799220e-03  6.2139427800010963e-04  1.4242190158294012e-03  1.0346699846431190e-03  3.8767713156553977e-07  1.1926914912834383e-03  7.3927500978828505e-04  1.1828356121645262e-03  4.2112319079529490e-04  2.4414346979711419e-04  3.4656140401634182e-07  8.7751971915158399e-04  9.8952617878582603e-07  1.2865004858171016e-05  1.4048480101840749e-04  6.5467570414068767e-04  1.4824182692867495e-03  1.6180130071294068e-04  1.0087094024808084e-03  4.6892795017975249e-08  5.4450610745805819e-05  1.4009809968412248e-03  9.8156563038260809e-04  5.6599358848246728e-04  1.5511424504120475e-05  3.1679989603278827e-06  1.3314840696873041e-03  1.7420085532902429e-05  1.5210668008080997e-04  5.6622518649259140e-04  1.9282515154244873e-03  2.0024528129198468e-09  3.6232280096456630e-05  8.9997989239343502e-05  2.5896825025487449e-04  6.1121446570234220e-09  4.6806228409761836e-04  5.2950394613981164e-04  2.5689414442006502e-04  2.2773411454064005e-03  1.1110929955975876e-03  3.9831439823011973e-05  1.3872052068626846e-03  7.6243109875316585e-04  5.2581753109632451e-04  3.0531672826960746e-04  6.6627520348904444e-04  6.3143701703918592e-04  3.8630602456270018e-04  6.4814552055347710e-04  6.0141048255150844e-04  4.0575967923939054e-04  7.5982102237588544e-08  1.3800625209222108e-03  5.8284332725916371e-05  1.0237993157579658e-04  1.2920534467297854e-08  8.1529230129864857e-08  2.8691184528630400e-04  6.3074061973549027e-08  5.6207915774429825e-04  1.0109780622125253e-07  5.3260876382643774e-09  4.5038304188066072e-04  9.9259485968287964e-04  2.8765884077898679e-08  3.6320286669368220e-05  1.8116409525596525e-03  9.3762584847790716e-04  1.1409836757745302e-05  7.6584133987398116e-07  4.9005706328311475e-09  1.0772903840284525e-03  5.6501182348889277e-04  2.6257492620079039e-04  5.8172996357654250e-05  1.4810432180336002e-07  4.2774811482499422e-05  2.5905064916238523e-04  1.8649053442748626e-03  1.4559785036511693e-03  5.7529018341409099e-04  1.0994365389465266e-03  1.1373774571780380e-06  5.6290499204589457e-04  1.0097018199444919e-08  1.1726976613957219e-08  5.7491349210357016e-04  1.1993894987592243e-04  1.0265544887042689e-03  2.1496786894998927e-07  1.2489080423461231e-03  1.8718592176010842e-08  3.7975633694771016e-05  1.2939317771612415e-04  1.5718837223501722e-07  2.1162498309577461e-07  8.5507012198974858e-08  9.9610936224251009e-04  7.7112688204216426e-04  1.2717897709336550e-03  1.2451810594459463e-06  3.7297986625616525e-05  1.7945612276710229e-04  1.0241234108796390e-04  1.0704872211895179e-04  8.6093237484542598e-04  9.0443921978547071e-05  2.6868590861815327e-04  1.2458377423646553e-07  1.2342182996519238e-03  1.8876126919789197e-04  6.5734107613989613e-04  1.9631713626297788e-07  1.5672976110721733e-04  8.1549571961820138e-05  1.4698855279535347e-08  2.1601232588334628e-05  6.5146927059241618e-05  3.4043055731488193e-04  3.4060547817344318e-04  1.9655724172091369e-04  5.0258680567641397e-08  1.5647546457008080e-04  9.5945086065798285e-04  6.0505246697419404e-08  9.0624878891597012e-10  1.5400704406487862e-09  6.5372097020633982e-05  8.3854264595408214e-08  3.9278832120555568e-04  4.1855423400602605e-04  1.4026689235442768e-05  1.0257205432364406e-04  3.3207269792948441e-06  3.9680718709390780e-04  6.0642127233053269e-05  9.1824785836016741e-04  2.6796393803195815e-05  4.0784709070986749e-04  2.9287901784107732e-04  5.3597467172464669e-05  5.8742778860815721e-05  7.5675031505287672e-08  1.6306127073687830e-06  8.4520203719155970e-04  3.1588015541341046e-08  1.5151721894405244e-04  3.9414609256299487e-04  7.1064285142691193e-05  2.8441401431816896e-05  3.9795588564881993e-04  2.5427460903643096e-04  1.7456875772736829e-04  1.9839378995721390e-08  7.2336017309139618e-08  2.1827515273314749e-09  1.1953408977058694e-06  2.2988935856138782e-07  3.3861459434638627e-06  3.1281971246592484e-05  7.2360641880096768e-05  2.6829438032485782e-05  1.3349866752779399e-09  2.3805061632899249e-04  9.7851583122084153e-09  6.0600636205740790e-04  6.8464558051354858e-04  5.9528988328166747e-05  2.9895865648044584e-04  1.3719980599918798e-04  2.4855789306425991e-04  3.7042617662355489e-05  8.4795373155361419e-05  1.4279458863092483e-04  1.7492455406989621e-04  3.0604557114869205e-09  1.5244289340460185e-04  5.7927608566512060e-04  1.4709571016315790e-05  3.5868057085063787e-04  1.1214506443585584e-04  4.7679357890660192e-09  9.9318597731296054e-04  3.0481635146021565e-03  1.1933008060129146e-03  6.3104226538132386e-04  1.8002383437539950e-09  5.7185807053919489e-04  5.6491225375802261e-04  2.7987834897846445e-09  8.3246391143495206e-05  5.5888418336007162e-08  5.1383177252294471e-07  4.1203370869318532e-04  2.7834512382467477e-05  1.1166502292842509e-03  2.2809673945803959e-04  3.8975893093658623e-05  7.7326455745645552e-04  5.5621434659420405e-04  1.1293049499377030e-03  6.8059107956499714e-06  4.1949049560661398e-08  4.9053847115570007e-04  7.7597890409593351e-04  1.4255436027543173e-06  7.1343792601602404e-06  2.3391895359137181e-05  1.2411333626263063e-03  6.3937504507557237e-04  7.8221160442413932e-04  9.4200920342911952e-04  5.7806632342783174e-04  5.3724736479194310e-04  7.2905754215997415e-06  2.3836496657718346e-05  5.0710142219289580e-06  7.6484441753972142e-05  5.5336742740971019e-04  5.4484005862236663e-05  1.1149019569586703e-07  3.8727830809272207e-06  5.3696494320593330e-04  6.4407936234230409e-05  4.1795748247683428e-07  9.4367345188267745e-08  1.3608956611963117e-03  1.2464265489255438e-03  3.9683630416338905e-04  5.4766578410682593e-04  5.5473809616292781e-03  6.9568247025376625e-04  2.6353755005898211e-06  7.6104898357580960e-08  1.3907335140354293e-04  4.6069490705062663e-09  8.7219522631162529e-05  6.6696373638693560e-04  1.5725033625360767e-04  3.8933877347609446e-04  2.5787530808294302e-04  2.6578902610723287e-05  1.8170687087519722e-04  1.1173755424669532e-04  5.0740099872775216e-09  9.0846626516627248e-09  2.4224802376662224e-04  6.6664589598638431e-08  5.7176676107327896e-05  3.4078112702328387e-05  1.9221280569823551e-04  1.2947051548833961e-09  1.0589382170144090e-03  1.5036921284088192e-03  2.5214129777061906e-05  1.7333422513880916e-04  7.2307943661065785e-04  2.0828022459539393e-06  8.2915243765594951e-05  1.9451169121438272e-07  5.9489686358795074e-09  1.2964282181915157e-08  1.5118590261439707e-07  5.6700679157790271e-06  2.5939425184154873e-03  4.7350042675096558e-04  1.8881129527106380e-04  2.6156087933648729e-04  4.8922096723598191e-04  3.1952212796221795e-04  3.7358912032305435e-08  9.0624868979400513e-04  1.5334964739281158e-03  1.0107137200104071e-03  1.7033768632278488e-04  7.0166875881012445e-06  1.9721586340883083e-06  1.9378773931801979e-04  5.5977509801710440e-04  9.5946741915084522e-05  1.3619274644553478e-05  7.3132027513998639e-08  3.0777487407351350e-05  4.2266905401309296e-05  5.6535842551352939e-05  5.1479553757617614e-05  3.8871441644990952e-05  6.0913703750304510e-05  4.9131070722912922e-04  4.2617090678465302e-05  1.2335482806769292e-05  3.0705003176935753e-08  4.4949090811403628e-08  5.4093233817998844e-07  2.0028061433873444e-06  5.8146743581825288e-06  5.6435761217259563e-04  5.6205644884581849e-04  5.5577394905966524e-04  5.1191922380050179e-05  5.6230713514919821e-04  7.6969328427881504e-08  1.9634739444729791e-08  3.0879611978732667e-04  3.7238607760285998e-05  1.9089465987435801e-08  1.0353450086918931e-04  1.1048738759747752e-09  6.6686480322310330e-08  5.7303959994381096e-08  4.1311234328867550e-06  3.8730970435488514e-04  9.5056563316010258e-05  2.1399097852370768e-05  1.4706751037003148e-05  1.5535509713303208e-05  5.3384260732197112e-04  7.4474198068718008e-05  5.4592315959796356e-04  1.8793308475906878e-05  2.5493110959985454e-05  9.4455349467902039e-10  5.4004050824786746e-07  2.3754821380649760e-04  9.2639445323069016e-04  5.6075470899999029e-05  3.4205836269657849e-06  8.1756848979755388e-05  1.0226683112207790e-03  2.1164509759728518e-03  1.7031956044821278e-03  8.5185876421935329e-05  1.0261756940074297e-07  1.6512843225267881e-03  6.1499388553627559e-04  2.6464342405963317e-04  1.2591831877130323e-03  2.6409336174174578e-05  2.4972148644763961e-04  5.3787489999315816e-04  5.1873079585043884e-04  4.9920732693113244e-04  5.5504420823101618e-04  7.7695384340840457e-04  1.6914698992864330e-03  2.4042324413447513e-06  9.0104726254962937e-04  4.0822178805976551e-04  1.3175393259876801e-05  1.9456291573392702e-03  6.7074078646116375e-06  5.2503930050794951e-04  3.2227580807392582e-04  1.4347485308353143e-03  8.2187280970016225e-04  1.1966838718369035e-03  3.2161007706581435e-04  6.6214731933405518e-07  1.6279111305625945e-03  1.6150263769258235e-03  2.1537476494353044e-08  6.6857395690835063e-07  1.6185658723833320e-03  3.1887377599873986e-07  3.6010689707009323e-08  9.3628020620181848e-04  8.6504388933362158e-05  4.3668713623269505e-04  2.5688564410532598e-04  4.9124272325585681e-04  6.0759405716331833e-05  4.9040553199832990e-04  4.7334580477034679e-04  4.5596555457382259e-04  1.4013271979064024e-04  8.3108342761065263e-05  9.3005129897168442e-05  5.2444836929722839e-05  1.8386939674801600e-04  5.4836462080415317e-04  4.0369062456721192e-04  4.2833055448611131e-04  7.8070550625319309e-05  3.7212677433830986e-04  3.4553960008359394e-04  1.4878739735673643e-04  1.6160736165787753e-04  3.6231543566107114e-07  9.1540818548450234e-08  2.3162312749183380e-04  4.3543104286219639e-04  5.1265226456621122e-04  5.0498428673583851e-04  4.5836131048445614e-04  7.5817012089239610e-04  6.8659332000448715e-09  1.5039916461203685e-04  1.5976012483285093e-04  1.4199522449373557e-04  1.6217001834997773e-04  1.2071232224510607e-04  2.2290326457757062e-04  7.5898579978270762e-04  6.5401278113146139e-08  5.0438537068693541e-05  2.1632949699500811e-08  2.7048338731808288e-05  7.8155382625557030e-04  7.6190465975740094e-04  5.6524299775063264e-04  5.0179103772064802e-04  1.5478645744850938e-08  1.0057670128809817e-03  6.9508256434779489e-08  2.0809445667727418e-04  1.7254420348881729e-03  2.2062865630982457e-08  2.4977429143945793e-04  2.5010799713637771e-04  3.7917698174732515e-05  7.5764613852645165e-08  5.0187948276839667e-05  5.5486979620755067e-04  1.2514831664380583e-03  7.7446440557982872e-04  6.0028698841711877e-04  6.9741023500308349e-04  5.5803311959933867e-04  4.0868827666807792e-04  2.8441304768912909e-09  3.0758641853039828e-06  1.1510224343093650e-03  6.0767079876755019e-04  6.0512740594851440e-04  1.0677997704498364e-04  5.5580451401784786e-05  3.0278792495851343e-08  4.7580284977681029e-05  1.4067075347987435e-07  3.8977103338387105e-09  9.0414292558114580e-05  1.9931273233228611e-04  5.1207295784192726e-08  5.8444552960776599e-05  1.0509917880612026e-08  6.9578453029186106e-04  1.0053877750755627e-04  1.3698198437735678e-04  1.7564953582496515e-04  9.2545264481857031e-05  2.8743624382385