<?xml version="1.0"?>
<VTKFile type="UnstructuredGrid"  version="0.1"  >
<UnstructuredGrid>
<Piece  NumberOfPoints="6486" NumberOfCells="12696">
<Points>
<DataArray  type="Float64"  NumberOfComponents="3"  format="ascii">0 5 0  0 0 0  5 0 0  5 5 0  2.5 0 0  5 2.5 0  2.5 5 0  0 2.5 0  2.5 2.5 0  0 1.25 0  1.25 0 0  1.25 5 0  0 3.75 0  5 1.25 0  3.75 0 0  5 3.75 0  3.75 5 0  3.541666666666667 1.458333333333333 0  1.458333333333333 3.541666666666667 0  1.875 1.25 0  3.75 3.125 0  1.284722222222222 2.326388888888889 0  2.683189655172414 3.767959770114943 0  0.9375 0.9375 0  4.0625 4.0625 0  0.7252209595959597 3.026357323232324 0  2.763480392156863 0.9129901960784315 0  1.875 4.345238095238095 0  4.345238095238095 1.875 0  4.192708333333333 0.8072916666666664 0  0.8072916666666665 4.192708333333334 0  3.368055555555555 2.326388888888889 0  0.6837606837606839 1.738782051282051 0  3.285485245626782 4.324328415208927 0  2.551239698778062 1.693130150610969 0  1.827256944444444 2.868923611111111 0  3.464875022477093 0.6813924607921316 0  1.942880513719175 2.059558626187995 0  3.04563492063492 2.971230158730159 0  4.375 3.4375 0  2.13639445139758 0.5994472256987903 0  4.272228422619047 2.606956845238095 0  0.625 0 0  0 0.625 0  5 4.375 0  4.375 5 0  0.6400043240752655 2.384646170113389 0  1.347691225855598 1.660875475110776 0  3.515783617857982 3.723905460714006 0  3.125 0 0  1.875 0 0  0.625 5 0  4.375 0 0  5 1.875 0  0 1.875 0  0 3.125 0  1.875 5 0  5 0.625 0  0 4.375 0  3.125 5 0  5 3.125 0  1.489644181965304 0.6007147273217681 0  2.054597701149425 3.742302955665024 0  2.662520990197781 4.39452575763237 0  2.415835363784578 3.165530021913244 0  0.8679986894865213 3.602373689486522 0  1.267459753787878 2.886186079545454 0  4.099702380952381 1.365327380952381 0  1.316964285714286 4.438244047619047 0  3.7915135293491 1.959691594758709 0  2.875141124191255 2.118761176511833 0  3.00418010501169 1.397414179299248 0  0.4081721322167092 3.410647930198662 0  0.4166666666666666 0.9375 0  1.014190407998288 0.4422301359994293 0  1.383260571305984 1.162718286082048 0  4.53125 3.90625 0  4.453125 4.453125 0  3.772848162504192 4.48678272083473 0  2.8125 0.404329517041716 0  0.4538690476190476 0.4538690476190476 0  2.305461739347387 1.04517007574828 0  3.771263799175824 2.624190260297553 0  3.229617768018734 1.809956994202883 0  3.780190884441317 1.025307111692601 0  4.646337365591398 0.9375 0  4.537623451379149 0.4609485750426037 0  1.200477888421151 3.934852888421152 0  0.3536626344086022 4.0625 0  0.4623765486208503 4.539051424957397 0  4.0625 0.353662634408602 0  4.560525106689535 1.390989100915847 0  3.958439078571988 3.619844539285994 0  4.672619047619047 2.1875 0  2.1875 4.672619047619047 0  1.862808494877602 3.325947624431087 0  0.3268135998175443 2.8125 0  4.674181280189791 2.8125 0  2.283233994935276 4.138623547175983 0  0.9375 4.677879119362977 0  3.08488061581743 3.469889594488945 0  3.113427375573758 3.913955730709506 0  1.652847799068813 3.950848935641292 0  2.932652662909449 2.550542739521724 0  3.311350648514189 1.088831994878698 0  0.6770833333333333 1.295851139601139 0  0 1.5625 0  1.047214787840024 1.96818092308125 0  4.183331482095785 3.03958703580843 0  3.4375 5 0  1.071307777252521 3.246275861010018 0  0 2.1875 0  0.386576856303419 2.03125 0  1.713862716483534 2.439783116849799 0  1.775396256975935 1.665976816304977 0  2.231236976948428 1.443917394671254 0  2.373900732409897 2.086930260150635 0  4.114918237574474 2.221646174618671 0  3.661302567757379 4.099620139144836 0  3.378215938602977 2.734494874063393 0  0.9842097536079312 2.597286741306247 0  1.642795138888889 4.672619047619047 0  4.0625 5 0  2.099458800960004 2.567446522665629 0  2.616202751603346 1.297895893940078 0  5 4.6875 0  0.9937554350075428 1.512592975947215 0  2.8125 5 0  3.002695327068194 4.614055254615477 0  3.205627424097207 0.3852436382721472 0  1.678616581261621 0.927556612265266 0  3.365326698305438 3.196943731162083 0  1.554834936170314 3.120009882655813 0  3.108408340729323 0.7797187795784133 0  3.684368918102174 0.3728877601163941 0  2.716214835303553 3.39276351922003 0  2.37718583984784 3.551973401560441 0  0.3750662445374837 1.52191994866787 0  2.679073487930202 2.844160731602957 0  1.557635869750078 1.991068682985722 0  1.812595698561088 0.3839273018252746 0  2.512014721281916 0.6320641118792227 0  2.1875 0 0  2.349973454443689 0.3189980586887866 0  4.6875 3.59375 0  4.636052949022233 3.178355898044465 0  4.6875 5 0  3.345485909784306 4.665765449101383 0  0.536727472389443 3.749603193819277 0  4.349541499640203 1.116201826262156 0  2.886559045931982 1.774013674579691 0  0.6770833333333334 0.7142857142857143 0  1.5625 0 0  4.120842096538671 4.628726497527622 0  2.176157474177018 1.793470423744689 0  2.175650736889416 2.909863021769539 0  4.036616464259081 1.709699085170981 0  3.887974623473683 0.6492597046022868 0  3.4375 0 0  3.70675699592552 2.289666624772415 0  4.697265625 4.208984375 0  2.815177577303495 4.085937578239174 0  4.672619047619047 1.730733296184288 0  4.6875 0 0  5 0.3125 0  0.3125 5 0  0 4.6875 0  0.3276089296588581 2.484526834811734 0  0.712433309515852 2.065138854645612 0  0.6376435912223634 2.711473454001295 0  1.184991292170422 0.7222504400947201 0  1.31884329779317 0.3206944232264773 0  3.683609198994263 3.44428698533042 0  0.3125 0 0  0 0.3125 0  4.231797269642997 3.789141808928991 0  1.564375596050781 1.425998687184973 0  2.007640894175573 0.9032106925568466 0  0.955125897558294 2.276666098587227 0  1.43898735721003 2.611310720271951 0  1.954491523717513 4.040700257877075 0  1.752947649777421 3.652439445419346 0  2.509575750247638 4.678021307664052 0  4.687194709705067 2.499965519538002 0  1.5625 5 0  0.9375 5 0  5 2.8125 0  2.1875 5 0  5 1.5625 0  5 2.1875 0  4.0625 0 0  5 0.9375 0  2.8125 0 0  0.9375 0 0  0 0.9375 0  0 2.8125 0  0 3.4375 0  0 4.0625 0  5 3.4375 0  5 4.0625 0  4.010848109290813 3.306446973933037 0  0.3077461147713075 3.119700563473354 0  4.6796875 4.6796875 0  2.333079012424948 3.845757959077508 0  0.7829771267899832 3.317744656243421 0  1.159100632608513 3.532487125138763 0  0.799066251840424 3.893573750162776 0  1.57326499580282 4.255438189102632 0  0.7309366047093668 0.2991402264438908 0  0.3054777494262156 1.223275888123843 0  4.027475154280377 2.78211326942427 0  2.35270874745988 4.426658168476266 0  3.474236283732569 2.021154281686229 0  4.401414236174444 2.329446628171927 0  3.39403781747337 3.987097102903034 0  1.077524329801934 1.214100792470484 0  4.065611571711903 1.066085524514197 0  2.165399002716117 3.335637450367864 0  3.007639563081306 1.093684039371638 0  4.030818285732145 4.351883315180857 0  3.504115222530889 1.739284194222036 0  1.224503368215566 4.712091441401919 0  3.805634204685714 1.321528442399996 0  4.319233123479386 1.573547993867769 0  1.024007670021325 4.394604704797005 0  3.776400432023095 3.839003324979723 0  2.991819819453308 4.320567175146181 0  0.9782797534072181 2.886406017887129 0  1.763835134082104 0.6602345487826022 0  3.765182288741625 1.631193038541544 0  2.267959593989681 2.345053543725764 0  4.412434895833333 4.168294270833333 0  4.4072265625 4.7255859375 0  2.791493971314009 3.11210833271929 0  3.408766223032414 3.469500900677365 0  1.915147569444444 4.725484476461039 0  2.070301968506271 0.2605666686358055 0  2.767932250651506 1.530295992695836 0  3.280065043173439 1.364863281105779 0  4.45101570110842 2.974157152713635 0  3.521928862999512 2.96990445010402 0  2.552921961347576 4.008414007169315 0  0.2682955376854191 3.657555015841003 0  3.084522868361304 2.310593316718068 0  2.669255823227708 1.939379494498064 0  2.615884629473921 2.238841231570381 0  1.405652091971449 0.8877813821442277 0  3.25151486618811 3.68536115104276 0  1.963741569810629 2.331207252264507 0  4.017297980292599 2.486269171379106 0  3.869168920841219 4.748188103831625 0  3.596868753579134 4.77342723825056 0  2.41262958240343 2.764128584995838 0  1.266750578673391 1.404747710001619 0  1.559243962241121 2.85146506328516 0  3.128799423834764 2.052081657715259 0  0.6770833333333333 0.9778025793650794 0  0.2083333333333333 0.78125 0  1.978224492765132 3.087074731032578 0  4.051448850909273 1.969392119104174 0  1.320577095006813 4.172234780971559 0  3.214261103850064 2.534397293281829 0  0.2635729089754111 1.779234736680035 0  3.510775680035133 4.460728640112889 0  2.603081405968802 0.2432579385496493 0  2.866341315154884 0.6662105505481998 0  3.000919221100777 0.2270278495648781 0  1.298858304121393 2.05917319923859 0  2.020292299736597 1.589794568392338 0  0.7401688396476035 4.470780315741533 0  0.6721783535561408 4.733125588707921 0  3.753712482075402 2.874301339727514 0  3.557348205914658 2.491958694539413 0  1.094565978195436 0.2011034254079851 0  0.9338148378011396 0.6833568465908735 0  2.945530578578538 3.701798332963805 0  3.111707186654356 3.216904195825605 0  1.341791111822685 3.293123262233967 0  1.632939924064587 1.184895891095613 0  0.6335477978936732 3.517393619499591 0  0.5576014611130192 3.210998966942492 0  1.564344196470102 0.3630498725895039 0  2.75362450242839 4.626680495816594 0  3.571304405229554 1.192452351107437 0  3.522934592621944 0.9359134489437148 0  4.453125 3.671875 0  4.765625 3.828125 0  1.055906321410838 4.14310472322957 0  4.795146539102229 0.46875 0  4.767156345199235 0.7178596932040019 0  0.2048534608977711 4.53125 0  0.232843654800765 4.282140306795998 0  0.5393715189906129 4.270810883024032 0  4.329922600274667 0.2750645887059072 0  4.275515096738972 0.5448389557295173 0  4.477747423652795 0.7252838358993123 0  0.2002829820452772 0.46875 0  0.4352678571428572 0.6956845238095237 0  0.5007241582667088 0.2123388122114133 0  4.672890923830735 0.2500902110494848 0  0.4308009280819452 4.783624996516437 0  2.104871305393774 4.438653689007242 0  0.2274454167838428 0.2274454167838428 0  3.446466574593436 0.4359605369011901 0  2.12354112127588 1.217588426759619 0  2.309175236825235 0.7888355970690434 0  2.556178570281936 1.054299163237582 0  0.578683248637
[...]
<PointData  Scalars="f_800-1"> 
<DataArray  type="Float64"  Name="f_800-1"  format="ascii">2.4046857878941567e-02  4.3299119774291184e-02  2.3318917506235100e-02  2.3107258178770476e-02  3.3370882463017219e-02  2.3299064132145681e-02  2.3732963584395708e-02  3.3739634146968442e-02  3.3362117543696779e-02  3.8764767170537562e-02  3.8427289842063547e-02  2.3618089002877433e-02  2.8659255240985154e-02  2.3299606664335473e-02  2.8326707788218240e-02  2.3329035249044498e-02  2.3675418225252268e-02  2.9146942582192876e-02  2.9532296412039138e-02  3.5905673662328573e-02  2.8342724388834752e-02  3.4410707803396709e-02  2.8608724454952102e-02  3.9781194552097381e-02  2.6912997357087944e-02  3.1608789261189353e-02  3.2288751364073866e-02  2.6350885998984656e-02  2.5921387937748907e-02  2.6508924967996259e-02  2.7037548897616365e-02  2.9891384142014865e-02  3.6783130846530350e-02  2.6382202666720707e-02  3.3176071809238684e-02  3.2225098235656967e-02  2.9447630317865403e-02  3.5592063238144372e-02  3.1154409638767009e-02  2.5834251291986011e-02  3.4836133909561910e-02  2.6219953318465786e-02  4.0952284496341529e-02  4.1276964720839311e-02  2.3348828630731195e-02  2.3793515556988432e-02  3.4205164144057512e-02  3.7521320337184270e-02  2.8806879225629890e-02  3.0805598020020922e-02  3.5876606254923477e-02  2.3926435102497617e-02  2.5802304483246042e-02  2.3272950817694864e-02  3.6246440245147844e-02  3.1198303425543247e-02  2.3704878473333888e-02  2.3309005789574691e-02  2.6481281828262905e-02  2.3705897953518771e-02  2.3303355967106452e-02  3.7457399548221096e-02  2.8740311062639662e-02  2.6099408487767071e-02  3.1104601165876513e-02  2.9276662678675649e-02  3.2198142947042548e-02  2.6890591288041683e-02  2.5939672320104051e-02  2.8162533537687485e-02  3.1871088717226492e-02  3.1334252362397529e-02  3.0048724119755350e-02  4.0020008548720558e-02  3.9381714174268050e-02  3.7849278417305288e-02  2.5214719559551291e-02  2.5308231338199341e-02  2.5804027113039321e-02  3.2098922593235914e-02  4.1463273807291944e-02  3.4174631719189184e-02  2.8272116901366887e-02  3.0441631182664904e-02  2.8182167302713876e-02  2.4699957785227721e-02  2.5149395187864826e-02  2.7936605760387336e-02  2.7396804797139664e-02  2.5480591710413416e-02  2.7052131495262803e-02  2.5019508898656940e-02  2.7490240688012792e-02  2.4597039130147123e-02  2.5028503920714647e-02  3.0400961667482101e-02  3.2474877028979172e-02  2.4590767408722423e-02  2.7139820396762954e-02  2.4923344448317782e-02  3.0004301434093810e-02  2.8088176539753134e-02  2.7889541701080336e-02  3.1631208122359054e-02  3.0072385737804373e-02  3.8576624587775950e-02  3.7507090796475462e-02  3.5854469647421276e-02  2.6616322076415948e-02  2.3692091862126646e-02  3.0716068504221029e-02  3.4987937006328622e-02  3.5668651026620701e-02  3.3992976430805448e-02  3.6328929365548476e-02  3.4466416366523402e-02  3.3892385118960353e-02  2.6840359545767592e-02  2.7428941253831062e-02  2.9843881410118178e-02  3.3335100678232664e-02  2.4959519617170391e-02  2.3699480371513103e-02  3.3696348578143361e-02  3.2926751771460018e-02  2.3303696824342458e-02  3.7829700220752896e-02  2.3724282274147013e-02  2.5238449078187664e-02  3.0491716723447942e-02  3.6697551561889780e-02  2.9891063622128518e-02  3.1245022682305522e-02  3.0900563855258523e-02  2.8549942864964910e-02  3.0227394657280134e-02  2.9477291539543687e-02  3.7659205079245396e-02  3.2384737900995553e-02  3.6106365551638035e-02  3.6143428028698514e-02  3.3301626357892473e-02  3.4611675924435571e-02  3.3947366681975073e-02  2.4570985231049301e-02  2.4758482504321905e-02  2.3690960526918391e-02  2.4984942450887990e-02  2.8656210776560293e-02  2.5870900326175728e-02  3.1844655426366428e-02  4.0901926127039620e-02  3.7157351377172486e-02  2.5272936229625332e-02  3.4683033901827240e-02  3.2131456689074703e-02  2.7147046902198047e-02  2.7729135563209040e-02  2.9563088851384599e-02  2.8512180582518053e-02  2.4523362455852678e-02  2.7347045161003072e-02  2.4575640959803371e-02  2.4544889174527223e-02  2.3318449229994424e-02  2.4088927072455107e-02  2.5216921638022971e-02  3.3789401653857430e-02  3.5476353846418326e-02  3.2873698194415123e-02  3.8692247202413793e-02  3.8147735359020635e-02  2.8598969532436798e-02  4.2216286051666108e-02  4.2501218079393152e-02  2.6390979265669176e-02  3.7152368027407803e-02  3.5370343805613817e-02  3.4619163048559068e-02  3.3277213951557770e-02  2.7546890755438768e-02  2.9092840969968267e-02  2.4987297761425390e-02  2.4535235654372347e-02  2.3741285252807942e-02  2.3692055887636260e-02  2.3308000077538811e-02  2.3699997481481539e-02  2.3278728284866601e-02  2.3281939819022209e-02  2.7062915655260696e-02  2.3320925452077465e-02  3.2078047983849022e-02  3.9685683269627736e-02  4.0016093842517787e-02  3.2460769929739487e-02  2.9928033342028534e-02  2.7299554661705170e-02  2.3315951271744975e-02  2.3336074423711960e-02  2.7293923844598961e-02  3.1221357230963372e-02  2.4382803522857596e-02  2.8318045753123640e-02  3.0434262037219530e-02  2.9574634697056016e-02  2.8117737687679615e-02  2.6679926480776217e-02  4.0524373215591401e-02  3.8862084052590236e-02  2.7231888375278297e-02  2.6024948768915295e-02  2.9450683681335191e-02  2.5679304698978112e-02  2.7865060566350762e-02  3.9282344327713839e-02  2.7020558232183984e-02  3.0348615406356156e-02  3.1307973057176142e-02  2.6339989035954040e-02  2.9311417527714077e-02  2.4893233743627230e-02  2.8088013491430950e-02  2.6005836463716018e-02  2.6190977935796934e-02  2.8013418912858121e-02  2.6379927388818475e-02  3.2176220863070856e-02  3.6354385355394182e-02  2.8244085564150381e-02  3.4268572710509225e-02  2.5638685199639112e-02  2.4797071157615820e-02  3.1464258870330733e-02  2.9542445025999058e-02  2.4771369721389686e-02  3.5093179939386758e-02  3.2306638035465247e-02  3.0210752829134196e-02  2.5505075049560906e-02  2.9257109130936629e-02  2.7648534825386321e-02  2.9039460702796234e-02  3.1029645096281085e-02  3.2700712486891846e-02  3.2916223476032597e-02  3.7798966930747170e-02  2.9124866150107981e-02  3.4719246050743356e-02  2.7254338629028249e-02  2.4700647460178044e-02  2.4562643649781907e-02  3.2923036064596935e-02  3.8454379864417063e-02  3.2308547045392627e-02  3.0858004707122522e-02  4.0500006051477126e-02  4.0634972793595098e-02  3.1348673383100240e-02  2.7098400108239187e-02  2.6992829336624759e-02  3.0503390728942006e-02  3.6628666150228466e-02  2.5840882925798100e-02  3.2945969314576544e-02  3.1867598333715545e-02  3.1320291566768320e-02  3.5494257425306527e-02  3.5308858447811009e-02  2.5752497698492926e-02  2.4705778549590066e-02  2.8331424203431904e-02  2.9135380487731684e-02  3.9053654725976446e-02  3.9662246226473331e-02  2.8951019397963219e-02  3.0707443620465413e-02  3.0539989913335487e-02  3.6874701522148404e-02  2.9631433683323050e-02  3.0861259192445915e-02  3.7160262449061968e-02  2.5176874928459558e-02  2.9028618852301520e-02  2.9233217170909345e-02  2.5515864341225658e-02  2.4264304273632020e-02  2.7118132342902012e-02  2.4101954047515851e-02  2.4234921304504276e-02  2.5789016343510829e-02  2.6492058550448356e-02  2.6562286789125394e-02  2.5987050080689987e-02  2.6194101122761555e-02  2.5380682808080385e-02  4.3238341651849144e-02  4.1964295176145229e-02  4.1451589586779032e-02  2.4605042646545852e-02  2.4767219902008239e-02  2.5961142445130349e-02  4.2244522978881587e-02  2.9507842239794364e-02  3.4901019614242967e-02  3.4148615077392683e-02  3.3160213772289622e-02  2.7799286699219033e-02  3.0219815205158467e-02  3.4745121072747076e-02  2.8118972694496119e-02  2.7852249025490081e-02  2.4300475226719225e-02  2.4194275180790599e-02  2.4240076877892498e-02  3.8673904878572599e-02  2.8533176058810093e-02  2.8522261390235015e-02  3.1065485706581322e-02  2.5880790120539399e-02  3.1022664678896899e-02  2.8557939592087168e-02  3.6730184575924106e-02  3.0296796444982187e-02  2.9560903372831817e-02  2.5928034783758443e-02  3.6524126523956875e-02  2.5489111356384053e-02  2.6721929315288814e-02  3.4659494999345529e-02  2.4189684247281164e-02  3.8135990648770782e-02  3.3519693387348524e-02  2.6734960561876478e-02  2.7273239147054117e-02  2.7391031691507299e-02  2.4368383989356014e-02  3.2077040192814772e-02  3.3107421341087816e-02  2.3933671826063749e-02  2.5275278910637872e-02  3.5507846371044649e-02  3.0180385526718003e-02  3.0055405821411727e-02  2.6761745186944953e-02  2.8928006359085448e-02  2.3943416222705616e-02  2.7245864347585178e-02  3.2080446870950186e-02  2.4551545150406105e-02  3.3216301884230914e-02  3.7672109884452472e-02  3.9788094260700957e-02  3.9203334699205686e-02  3.0072590616743073e-02  3.0569649638118715e-02  3.4356635331471291e-02  2.3932419387701999e-02  2.3936594651206254e-02  2.4318420736477411e-02  2.4785005904070956e-02  2.3775020352025580e-02  2.7467960282848425e-02  2.6218764487768990e-02  3.2223134442208486e-02  2.4388056962448123e-02  3.1081059909738806e-02  2.6974907191882825e-02  2.7167678870417780e-02  2.8282378767105713e-02  3.2552326770232787e-02  3.1879588179580566e-02  4.0285136640833552e-02  2.5998316117379797e-02  3.0606167397136178e-02  3.4885655800370868e-02  3.3804199403211659e-02  2.4329614680482562e-02  3.6404799716233907e-02  3.6266706439074738e-02  3.7239203651324417e-02  3.5638582932237310e-02  2.7519096018669219e-02  3.3082593353236080e-02  2.9496993209700617e-02  3.1206932941811975e-02  2.7948247195894487e-02  2.6779848458541047e-02  2.5060566335651770e-02  3.1409501029131690e-02  3.3298969504563986e-02  3.8556279728288248e-02  2.5876315372816337e-02  3.6428883752406591e-02  3.6417387371820834e-02  2.5982042921104304e-02  3.1792492624525999e-02  3.0224595145239098e-02  2.4955589097489132e-02  3.2705769620040889e-02  3.9678339438470628e-02  3.5845913656359273e-02  2.7662382684772127e-02  2.6325125237948135e-02  3.1769241532121309e-02  2.6463685650495786e-02  2.4670721695502773e-02  3.1314382761636957e-02  3.7164363480993043e-02  2.3894193155738916e-02  3.3854124451509704e-02  3.3491327923834510e-02  3.4035159626666936e-02  2.5773532573605696e-02  2.9983116113903991e-02  3.1337806190744409e-02  2.8987928937471770e-02  3.8753787823000728e-02  3.4983040958364117e-02  2.3643291333931785e-02  3.3769291747513690e-02  2.8149717644554099e-02  2.8274684963589772e-02  2.5808525997590717e-02  3.2814653103973287e-02  3.3947790523662535e-02  2.8798268608090510e-02  2.9204741066668323e-02  2.8162833805396678e-02  2.7468642732548773e-02  3.7784612355636384e-02  3.1984194324954356e-02  2.4325249305454589e-02  2.5322682745650655e-02  2.7006441330217779e-02  3.3258444021061116e-02  2.7679932165096240e-02  3.2139033549181913e-02  2.7187367539080059e-02  3.7482779551027780e-02  2.5120439468942230e-02  2.9813494448136805e-02  3.4906740066950770e-02  2.8762492393844919e-02  2.4265722685719002e-02  3.6703585662323922e-02  3.0134348145696897e-02  3.2113058524790961e-02  3.5654899818579715e-02  2.5174832002097955e-02  3.0273989055142485e-02  3.5029424377978097e-02  2.5780232061899951e-02  2.4541299345310404e-02  2.5403183026355785e-02  2.3693963927967208e-02  3.5322553381662153e-02  3.7786589426476051e-02  3.3040108191296408e-02  3.7365362867545389e-02  2.9742844807923077e-02  3.0685974894528276e-02  3.3533880768994932e-02  2.6438222183176919e-02  2.6677013690755053e-02  3.2764228252142182e-02  2.5541846825606094e-02  3.6005573813075419e-02  3.0726126352575763e-02  3.8400596974468744e-02  2.7802484034819126e-02  3.7170170907362750e-02  3.6244983808892656e-02  3.4036856682913452e-02  3.2616864628905652e-02  3.2623879010715770e-02  2.9417312051431395e-02  2.8737317757199711e-02  3.0879297378464458e-02  3.9761426171810804e-02  2.3782513886363300e-02  2.5475731692386455e-02  2.5394827401686828e-02  2.5467990646845809e-02  3.4153725112619535e-02  2.3705353117834203e-02  3.7316696427112710e-02  3.4657288561721303e-02  3.4027686933903359e-02  2.6549717429427310e-02  3.1669432048588804e-02  3.1600524324317071e-02  2.6519632880980651e-02  3.1181492278247108e-02  2.3269964871728482e-02  2.4674087944899004e-02  2.8018513582370019e-02  2.6384837445242042e-02  2.8420115069352259e-02  2.6314507127050968e-02  2.7416222681471689e-02  3.0437324611680177e-02  3.3668442607698565e-02  4.0319696012147112e-02  2.3307608131399902e-02  2.3989287413791173e-02  2.4382194475230011e-02  3.5816143135659673e-02  2.8987562892176154e-02  2.9347690648146973e-02  2.8868827361124574e-02  2.4547190979689267e-02  3.5414058180228601e-02  2.6846241908933848e-02  3.5477124870224044e-02  3.5332048007720385e-02  2.7486473538045602e-02  2.9291651817947344e-02  2.7796965795864641e-02  2.4267907440004444e-02  2.4311054493232974e-02  3.4410388584126587e-02  3.6811696552719909e-02  3.2767372308351417e-02  2.4880720355240221e-02  2.6007432030653966e-02  2.8599135298497665e-02  2.9243500901314057e-02  2.8737369997497382e-02  2.8066082777937488e-02  2.7394795366601093e-02  2.6206246028957707e-02  2.6452230015457080e-02  3.3586263654011600e-02  2.3297380634170611e-02  2.6615492538520174e-02  2.6784066757389591e-02  2.7600321799596750e-02  2.3933962283203603e-02  2.4887096206920419e-02  2.4027836913002643e-02  2.3298188589030756e-02  2.6496461004503497e-02  2.6404418515366249e-02  3.4932217122610978e-02  3.4806103299307008e-02  3.0175634910152137e-02  2.5669175306790332e-02  2.4353454200877245e-02  2.9820490613681010e-02  2.3923052493989679e-02  2.5121218178499737e-02  3.2534133594902891e-02  3.1991087772232148e-02  2.4828443564261757e-02  2.6121526736211285e-02  2.9791547157595962e-02  3.6011923142553706e-02  2.7676164624849838e-02  2.5334814135425036e-02  2.5289193583741862e-02  4.1230428172290882e-02  4.1270975654106305e-02  4.0219736829452415e-02  2.8853054586098405e-02  2.3918046174158478e-02  2.9240692393152981e-02  3.6874622829176071e-02  2.3938325923644525e-02  2.5262125490271334e-02  3.1185900267922180e-02  2.9703589034239780e-02  2.6652177152467864e-02  2.3902145888287648e-02  3.1211513675870946e-02  2.5292899118420430e-02  2.3976964491471443e-02  3.7131525161569659e-02  3.1644166971919338e-02  3.0136707110849949e-02  2.5240569674440626e-02  2.3908548435633670e-02  2.9549992895416710e-02  2.8591866412881015e-02  3.8806364485724359e-02  3.0722246187353593e-02  2.3331012607299580e-02  3.3044086765607217e-02  3.5788890994499889e-02  3.2843870044839504e-02  2.9724450654547888e-02  3.3531659257749521e-02  3.3174867669097087e-02  3.4663386867298557e-02  2.5271850033080696e-02  2.8307153800615908e-02  4.0922410918003228e-02  3.2879629119763172e-02  3.7985569693132631e-02  3.8398209568962456e-02  3.7902219338495524e-02  3.9103688303120658e-02  3.9132726986527276e-02  2.3926245795469422e-02  2.3278313281886277e-02  3.2400991427459162e-02  3.1997102822738585e-02  3.2523351473527397e-02  3.2247216977974981e-02  4.1743014188190992e-02  2.9011640558197733e-02  2.4788510800668101e-02  3.5246974203963444e-02  2.5756486637063522e-02  2.5303230569965297e-02  2.5048104581348599e-02  2.7951194269525709e-02  2.5864012505348803e-02  3.4685311765002454e-02  2.6840161236675004e-02  3.1648119500443994e-02  2.5503243785382108e-02  2.5001677596141973e-02  4.2810601945166470e-02  4.2551004069130677e-02  2.6612568130930526e-02  3.2715106738263243e-02  2.4751765092143843e-02  4.1987478513715787e-02  2.6935729432689317e-02  2.3857102340915658e-02  3.7748250895382182e-02  3.7880472979491264e-02  2.9802677960917161e-02  2.6915483432173253e-02  3.0779502219932659e-02  3.4785840752022450e-02  2.3683176421159493e-02  4.0842130285125219e-02  2.5590771660162801e-02  2.7057789470041647e-02  3.5487257301737234e-02  2.6169899384435123e-02  3.9387803767867179e-02  3.0209962319406102e-02  2.6509718727157346e-02  2.7326632864341172e-02  2.8893075857073500e-02  2.7002734480759356e-02  2.9546552300179368e-02  3.0651029712649946e-02  3.3951097132222226e-02  2.9248139231026808e-02  2.7669433573611197e-02  2.4562414768789020e-02  2.3886228770394754e-02  2.6766868023142525e-02  3.3732848787381045e-02  2.4323812728444191e-02  2.3906281090405795e-02  3.3990957043987129e-02  2.3785862804636616e-02  2.3737203455386616e-02  2.3775163770572868e-02  2.4588367147714531e-02  2.3997993912443571e-02  2.3774770723285515e-02  3.0560250664373369e-02  2.3804461389638237e-02  2.3309570581650667e-02  2.8946799126602678e-02  3.0184735384888455e-02  2.3291524006270773e-02  2.3304390104012571e-02  2.3305753798050301e-02  3.5618709227027957e-02  3.4363412496129016e-02  3.3103505214450754e-02  2.3709514761102782e-02  3.8139672416614374e-02  3.6524767711410819e-02  2.7690888460122173e-02  2.8012637503311559e-02  2.4019564913139547e-02  4.1582375487264893e-02  2.5870947930470824e-02  2.3319330067178366e-02  3.9056033819729233e-02  3.1445404183542303e-02  4.1849436476457814e-02  4.0641874380932322e-02  2.3671594129601167e-02  2.3326344865699063e-02  2.3262625157130706e-02  2.3475950497648838e-02  3.1832311811937526e-02  2.3710634594443756e-02  3.9394856183779935e-02  2.3325980207385213e-02  2.3359244392963604e-02  2.3311668331933134e-02  2.8125957732832753e-02  2.6101483908928517e-02  3.0683706208614568e-02  2.4328678361709790e-02  3.1559167650580068e-02  2.4457833028773582e-02  3.8532790039781314e-02  3.8783311561314184e-02  3.9690626818221060e-02  2.5313719365540999e-02  4.0003906358794153e-02  3.6776444914969446e-02  3.9061040923306575e-02  2.7554918483980714e-02  3.3617245673390583e-02  3.4784630363779330e-02  2.6955275304865897e-02  3.1848372929067677e-02  3.1261048735708667e-02  3.0695149034868842e-02  3.3100169136192827e-02  3.8252622168249470e-02  3.9414222791145891e-02  2.5203000072646246e-02  2.8797178429730719e-02  2.8155386813859387e-02  2.5899690659458206e-02  3.7941997752551020e-02  2.3971442557484113e-02  3.1441061690632779e-02  2.7317796577633911e-02  3.4624840833422883e-02  3.6133833952582094e-02  3.1917575686304114e-02  2.7748945490266859e-02  3.1750545336308535e-02  3.5317270740418877e-02  3.4791118990773667e-02  2.7953441470840893e-02  2.4896555077450658e-02  3.6471474439024751e-02  2.6030878567866633e-02  2.5557621888642169e-02  3.1956260198918333e-02  2.9838002188371598e-02  3.6477741436278362e-02  2.9424228107776861e-02  3.8118807583059369e-02  2.5297053223502571e-02  3.0232800524939905e-02  2.9888640835097003e-02  2.6635627486436809e-02  2.7883325055410500e-02  2.7630514839811722e-02  2.6799698761424962e-02  2.6902821751465234e-02  2.6455202209043932e-02  3.2493306576571193e-02  2.7283277201979653e-02  2.9395367915462576e-02  3.2933488865043020e-02  2.8709859101690577e-02  2.8367386824641735e-02  2.4834308097508740e-02  3.1441402667616324e-02  2.8726877589229222e-02  2.8386519363966287e-02  2.7076143230673953e-02  2.7755274861846601e-02  3.0989101178177023e-02  3.0729235106011620e-02  2.9867984206506663e-02  3.4268327528958052e-02  2.5943854267788977e-02  2.5605360191455411e-02  2.5504580158686369e-02  2.5973929926052613e-02  2.6367434653280147e-02  2.5610282144083889e-02  2.5241460051890811e-02  3.0730043245493752e-02  3.1686043361342751e-02  2.5356933064866787e-02  2.4058210817764887e-02  2.5818007021067537e-02  2.9927945070911871e-02  3.2237265216634114e-02  3.4076745655575912e-02  3.0428302881770893e-02  2.7262538995154503e-02  3.6759868960765898e-02  3.2697278116738900e-02  2.5002552419409064e-02  3.7297920817477209e-02  2.8145835789813094e-02  2.6618050884287370e-02  2.6226708483154816e-02  2.3971807614105015e-02  2.6383235149705371e-02  2.4426757923092308e-02  3.2173722055748373e-02  3.0890766870383786e-02  3.2247021754860945e-02  3.3358400889801521e-02  2.7873295435242425e-02  2.7657535369980717e-02  2.9036948881931975e-02  2.4791552675861042e-02  3.3852061179361723e-02  3.0776392976569231e-02  3.2210123645189180e-02  3.2775062794626414e-02  2.5481481837342564e-02  2.4217705705343942e-02  2.7623110787946246e-02  2.4226099834125086e-02  2.7536751998561409e-02  2.4856213149662427e-02  2.4973665682956551e-02  2.6797617975861138e-02  3.0789511422591419e-02  2.4787669435986245e-02  2.6632498582661323e-02  2.7792219631076240e-02  2.5298343229861929e-02  2.5916944546832819e-02  2.6416764338382717e-02  2.5123888573074377e-02  3.31908443568