<?xml version="1.0"?>
<VTKFile type="UnstructuredGrid"  version="0.1"  >
<UnstructuredGrid>
<Piece  NumberOfPoints="6486" NumberOfCells="12696">
<Points>
<DataArray  type="Float64"  NumberOfComponents="3"  format="ascii">0 5 0  0 0 0  5 0 0  5 5 0  2.5 0 0  5 2.5 0  2.5 5 0  0 2.5 0  2.5 2.5 0  0 1.25 0  1.25 0 0  1.25 5 0  0 3.75 0  5 1.25 0  3.75 0 0  5 3.75 0  3.75 5 0  3.541666666666667 1.458333333333333 0  1.458333333333333 3.541666666666667 0  1.875 1.25 0  3.75 3.125 0  1.284722222222222 2.326388888888889 0  2.683189655172414 3.767959770114943 0  0.9375 0.9375 0  4.0625 4.0625 0  0.7252209595959597 3.026357323232324 0  2.763480392156863 0.9129901960784315 0  1.875 4.345238095238095 0  4.345238095238095 1.875 0  4.192708333333333 0.8072916666666664 0  0.8072916666666665 4.192708333333334 0  3.368055555555555 2.326388888888889 0  0.6837606837606839 1.738782051282051 0  3.285485245626782 4.324328415208927 0  2.551239698778062 1.693130150610969 0  1.827256944444444 2.868923611111111 0  3.464875022477093 0.6813924607921316 0  1.942880513719175 2.059558626187995 0  3.04563492063492 2.971230158730159 0  4.375 3.4375 0  2.13639445139758 0.5994472256987903 0  4.272228422619047 2.606956845238095 0  0.625 0 0  0 0.625 0  5 4.375 0  4.375 5 0  0.6400043240752655 2.384646170113389 0  1.347691225855598 1.660875475110776 0  3.515783617857982 3.723905460714006 0  3.125 0 0  1.875 0 0  0.625 5 0  4.375 0 0  5 1.875 0  0 1.875 0  0 3.125 0  1.875 5 0  5 0.625 0  0 4.375 0  3.125 5 0  5 3.125 0  1.489644181965304 0.6007147273217681 0  2.054597701149425 3.742302955665024 0  2.662520990197781 4.39452575763237 0  2.415835363784578 3.165530021913244 0  0.8679986894865213 3.602373689486522 0  1.267459753787878 2.886186079545454 0  4.099702380952381 1.365327380952381 0  1.316964285714286 4.438244047619047 0  3.7915135293491 1.959691594758709 0  2.875141124191255 2.118761176511833 0  3.00418010501169 1.397414179299248 0  0.4081721322167092 3.410647930198662 0  0.4166666666666666 0.9375 0  1.014190407998288 0.4422301359994293 0  1.383260571305984 1.162718286082048 0  4.53125 3.90625 0  4.453125 4.453125 0  3.772848162504192 4.48678272083473 0  2.8125 0.404329517041716 0  0.4538690476190476 0.4538690476190476 0  2.305461739347387 1.04517007574828 0  3.771263799175824 2.624190260297553 0  3.229617768018734 1.809956994202883 0  3.780190884441317 1.025307111692601 0  4.646337365591398 0.9375 0  4.537623451379149 0.4609485750426037 0  1.200477888421151 3.934852888421152 0  0.3536626344086022 4.0625 0  0.4623765486208503 4.539051424957397 0  4.0625 0.353662634408602 0  4.560525106689535 1.390989100915847 0  3.958439078571988 3.619844539285994 0  4.672619047619047 2.1875 0  2.1875 4.672619047619047 0  1.862808494877602 3.325947624431087 0  0.3268135998175443 2.8125 0  4.674181280189791 2.8125 0  2.283233994935276 4.138623547175983 0  0.9375 4.677879119362977 0  3.08488061581743 3.469889594488945 0  3.113427375573758 3.913955730709506 0  1.652847799068813 3.950848935641292 0  2.932652662909449 2.550542739521724 0  3.311350648514189 1.088831994878698 0  0.6770833333333333 1.295851139601139 0  0 1.5625 0  1.047214787840024 1.96818092308125 0  4.183331482095785 3.03958703580843 0  3.4375 5 0  1.071307777252521 3.246275861010018 0  0 2.1875 0  0.386576856303419 2.03125 0  1.713862716483534 2.439783116849799 0  1.775396256975935 1.665976816304977 0  2.231236976948428 1.443917394671254 0  2.373900732409897 2.086930260150635 0  4.114918237574474 2.221646174618671 0  3.661302567757379 4.099620139144836 0  3.378215938602977 2.734494874063393 0  0.9842097536079312 2.597286741306247 0  1.642795138888889 4.672619047619047 0  4.0625 5 0  2.099458800960004 2.567446522665629 0  2.616202751603346 1.297895893940078 0  5 4.6875 0  0.9937554350075428 1.512592975947215 0  2.8125 5 0  3.002695327068194 4.614055254615477 0  3.205627424097207 0.3852436382721472 0  1.678616581261621 0.927556612265266 0  3.365326698305438 3.196943731162083 0  1.554834936170314 3.120009882655813 0  3.108408340729323 0.7797187795784133 0  3.684368918102174 0.3728877601163941 0  2.716214835303553 3.39276351922003 0  2.37718583984784 3.551973401560441 0  0.3750662445374837 1.52191994866787 0  2.679073487930202 2.844160731602957 0  1.557635869750078 1.991068682985722 0  1.812595698561088 0.3839273018252746 0  2.512014721281916 0.6320641118792227 0  2.1875 0 0  2.349973454443689 0.3189980586887866 0  4.6875 3.59375 0  4.636052949022233 3.178355898044465 0  4.6875 5 0  3.345485909784306 4.665765449101383 0  0.536727472389443 3.749603193819277 0  4.349541499640203 1.116201826262156 0  2.886559045931982 1.774013674579691 0  0.6770833333333334 0.7142857142857143 0  1.5625 0 0  4.120842096538671 4.628726497527622 0  2.176157474177018 1.793470423744689 0  2.175650736889416 2.909863021769539 0  4.036616464259081 1.709699085170981 0  3.887974623473683 0.6492597046022868 0  3.4375 0 0  3.70675699592552 2.289666624772415 0  4.697265625 4.208984375 0  2.815177577303495 4.085937578239174 0  4.672619047619047 1.730733296184288 0  4.6875 0 0  5 0.3125 0  0.3125 5 0  0 4.6875 0  0.3276089296588581 2.484526834811734 0  0.712433309515852 2.065138854645612 0  0.6376435912223634 2.711473454001295 0  1.184991292170422 0.7222504400947201 0  1.31884329779317 0.3206944232264773 0  3.683609198994263 3.44428698533042 0  0.3125 0 0  0 0.3125 0  4.231797269642997 3.789141808928991 0  1.564375596050781 1.425998687184973 0  2.007640894175573 0.9032106925568466 0  0.955125897558294 2.276666098587227 0  1.43898735721003 2.611310720271951 0  1.954491523717513 4.040700257877075 0  1.752947649777421 3.652439445419346 0  2.509575750247638 4.678021307664052 0  4.687194709705067 2.499965519538002 0  1.5625 5 0  0.9375 5 0  5 2.8125 0  2.1875 5 0  5 1.5625 0  5 2.1875 0  4.0625 0 0  5 0.9375 0  2.8125 0 0  0.9375 0 0  0 0.9375 0  0 2.8125 0  0 3.4375 0  0 4.0625 0  5 3.4375 0  5 4.0625 0  4.010848109290813 3.306446973933037 0  0.3077461147713075 3.119700563473354 0  4.6796875 4.6796875 0  2.333079012424948 3.845757959077508 0  0.7829771267899832 3.317744656243421 0  1.159100632608513 3.532487125138763 0  0.799066251840424 3.893573750162776 0  1.57326499580282 4.255438189102632 0  0.7309366047093668 0.2991402264438908 0  0.3054777494262156 1.223275888123843 0  4.027475154280377 2.78211326942427 0  2.35270874745988 4.426658168476266 0  3.474236283732569 2.021154281686229 0  4.401414236174444 2.329446628171927 0  3.39403781747337 3.987097102903034 0  1.077524329801934 1.214100792470484 0  4.065611571711903 1.066085524514197 0  2.165399002716117 3.335637450367864 0  3.007639563081306 1.093684039371638 0  4.030818285732145 4.351883315180857 0  3.504115222530889 1.739284194222036 0  1.224503368215566 4.712091441401919 0  3.805634204685714 1.321528442399996 0  4.319233123479386 1.573547993867769 0  1.024007670021325 4.394604704797005 0  3.776400432023095 3.839003324979723 0  2.991819819453308 4.320567175146181 0  0.9782797534072181 2.886406017887129 0  1.763835134082104 0.6602345487826022 0  3.765182288741625 1.631193038541544 0  2.267959593989681 2.345053543725764 0  4.412434895833333 4.168294270833333 0  4.4072265625 4.7255859375 0  2.791493971314009 3.11210833271929 0  3.408766223032414 3.469500900677365 0  1.915147569444444 4.725484476461039 0  2.070301968506271 0.2605666686358055 0  2.767932250651506 1.530295992695836 0  3.280065043173439 1.364863281105779 0  4.45101570110842 2.974157152713635 0  3.521928862999512 2.96990445010402 0  2.552921961347576 4.008414007169315 0  0.2682955376854191 3.657555015841003 0  3.084522868361304 2.310593316718068 0  2.669255823227708 1.939379494498064 0  2.615884629473921 2.238841231570381 0  1.405652091971449 0.8877813821442277 0  3.25151486618811 3.68536115104276 0  1.963741569810629 2.331207252264507 0  4.017297980292599 2.486269171379106 0  3.869168920841219 4.748188103831625 0  3.596868753579134 4.77342723825056 0  2.41262958240343 2.764128584995838 0  1.266750578673391 1.404747710001619 0  1.559243962241121 2.85146506328516 0  3.128799423834764 2.052081657715259 0  0.6770833333333333 0.9778025793650794 0  0.2083333333333333 0.78125 0  1.978224492765132 3.087074731032578 0  4.051448850909273 1.969392119104174 0  1.320577095006813 4.172234780971559 0  3.214261103850064 2.534397293281829 0  0.2635729089754111 1.779234736680035 0  3.510775680035133 4.460728640112889 0  2.603081405968802 0.2432579385496493 0  2.866341315154884 0.6662105505481998 0  3.000919221100777 0.2270278495648781 0  1.298858304121393 2.05917319923859 0  2.020292299736597 1.589794568392338 0  0.7401688396476035 4.470780315741533 0  0.6721783535561408 4.733125588707921 0  3.753712482075402 2.874301339727514 0  3.557348205914658 2.491958694539413 0  1.094565978195436 0.2011034254079851 0  0.9338148378011396 0.6833568465908735 0  2.945530578578538 3.701798332963805 0  3.111707186654356 3.216904195825605 0  1.341791111822685 3.293123262233967 0  1.632939924064587 1.184895891095613 0  0.6335477978936732 3.517393619499591 0  0.5576014611130192 3.210998966942492 0  1.564344196470102 0.3630498725895039 0  2.75362450242839 4.626680495816594 0  3.571304405229554 1.192452351107437 0  3.522934592621944 0.9359134489437148 0  4.453125 3.671875 0  4.765625 3.828125 0  1.055906321410838 4.14310472322957 0  4.795146539102229 0.46875 0  4.767156345199235 0.7178596932040019 0  0.2048534608977711 4.53125 0  0.232843654800765 4.282140306795998 0  0.5393715189906129 4.270810883024032 0  4.329922600274667 0.2750645887059072 0  4.275515096738972 0.5448389557295173 0  4.477747423652795 0.7252838358993123 0  0.2002829820452772 0.46875 0  0.4352678571428572 0.6956845238095237 0  0.5007241582667088 0.2123388122114133 0  4.672890923830735 0.2500902110494848 0  0.4308009280819452 4.783624996516437 0  2.104871305393774 4.438653689007242 0  0.2274454167838428 0.2274454167838428 0  3.446466574593436 0.4359605369011901 0  2.12354112127588 1.217588426759619 0  2.309175236825235 0.7888355970690434 0  2.556178570281936 1.054299163237582 0  0.578683248637
[...]
<PointData  Scalars="f_800-1"> 
<DataArray  type="Float64"  Name="f_800-1"  format="ascii">2.2916959907107050e-02  4.2169218202840301e-02  2.2189015934691754e-02  2.1977356607187967e-02  3.2240980891525765e-02  2.2169162560544558e-02  2.2603064865705968e-02  3.2609732593205529e-02  3.2232215972203555e-02  3.7634865599076278e-02  3.7297388270601736e-02  2.2488191640510833e-02  2.7529353963482772e-02  2.2169705092723941e-02  2.7196806216678748e-02  2.2199133677450803e-02  2.2545516655061569e-02  2.8017041010662682e-02  2.8402394865295423e-02  3.4775772090854556e-02  2.7212822817295895e-02  3.3280806231911979e-02  2.7478822883416378e-02  3.8651292980639504e-02  2.5783095785529522e-02  3.0478887714112099e-02  3.1158849792573839e-02  2.5220985101177342e-02  2.4791486366181319e-02  2.5379023396435704e-02  2.5907647997736594e-02  2.8761482570492655e-02  3.5653229275060143e-02  2.5252301095161141e-02  3.2046170237746058e-02  3.1095196664155174e-02  2.8317728746338255e-02  3.4462161666666019e-02  3.0024508067255269e-02  2.4704349720417206e-02  3.3706232338081094e-02  2.5090051746901688e-02  3.9822382924887531e-02  4.0147063149385480e-02  2.2218927059140633e-02  2.2663613985422347e-02  3.3075262572566759e-02  3.6391418765716298e-02  2.7676977654092688e-02  2.9675696448507316e-02  3.4746704683449037e-02  2.2796537221759918e-02  2.4672402911677077e-02  2.2143049246088935e-02  3.5116538673683487e-02  3.0068401929055428e-02  2.2574980719576396e-02  2.2179104217978796e-02  2.5351381218509137e-02  2.2575996708755423e-02  2.2173454395508836e-02  3.6327497976755163e-02  2.7610409491873763e-02  2.4969506936893482e-02  2.9974699594364457e-02  2.8146761304435681e-02  3.1068241375523342e-02  2.5760689716485683e-02  2.4809771933952389e-02  2.7032631966146456e-02  3.0741187145723096e-02  3.0204350790889151e-02  2.8918822684264670e-02  3.8890106977263646e-02  3.8251812602809819e-02  3.6719376845841117e-02  2.4084817987974821e-02  2.4178329766621563e-02  2.4674125541467980e-02  3.0969021021734166e-02  4.0333372235838841e-02  3.3044730147703913e-02  2.7142215329827225e-02  2.9311729611148109e-02  2.7052265731172913e-02  2.3570056213644656e-02  2.4019493616287430e-02  2.6806704583997219e-02  2.6266903799528764e-02  2.4350691785789452e-02  2.5922229923708639e-02  2.3889607327078989e-02  2.6360339116463325e-02  2.3467137558564152e-02  2.3898603732979022e-02  2.9271060095964172e-02  3.1344975489061518e-02  2.3460865837138984e-02  2.6009918849632357e-02  2.3793444986871037e-02  2.8874399862569428e-02  2.6958274968209840e-02  2.6759640323165693e-02  3.0501306550853272e-02  2.8942484166283772e-02  3.7446723016314062e-02  3.6377189225008440e-02  3.4724568075945914e-02  2.5486420504856718e-02  2.2562190325561976e-02  2.9586166953575705e-02  3.3858035435409210e-02  3.4538749455141543e-02  3.2863074859317595e-02  3.5199027794076021e-02  3.3336514795040247e-02  3.2762483547472833e-02  2.5710457974211016e-02  2.6299039682278397e-02  2.8713979838595520e-02  3.2205199106744076e-02  2.3829620015680748e-02  2.2569578799938948e-02  3.2566447006652233e-02  3.1796850199965344e-02  2.2173795252751566e-02  3.6699798649287435e-02  2.2594382026226906e-02  2.4108547520147159e-02  2.9361815151931370e-02  3.5567649990420107e-02  2.8761162050604902e-02  3.0115121110778666e-02  2.9770662283745981e-02  2.7420041293427972e-02  2.9097493085759252e-02  2.8347389968016293e-02  3.6529303507779498e-02  3.1254836329493524e-02  3.4976463980162964e-02  3.5013526457225698e-02  3.2171724786400610e-02  3.3481774352953145e-02  3.2817465110488019e-02  2.3441083659465858e-02  2.3628580932740346e-02  2.2561058955342560e-02  2.3855040879843931e-02  2.7526309493142453e-02  2.4740998754607658e-02  3.0714753854862730e-02  3.9772024555584595e-02  3.6027449805704992e-02  2.4143034658049976e-02  3.3553132330345528e-02  3.1001555117571890e-02  2.6017145330645117e-02  2.6599233991662821e-02  2.8433187279858545e-02  2.7382279010981031e-02  2.3393460884268198e-02  2.6217143589462418e-02  2.3445739388220348e-02  2.3414987602945258e-02  2.2188547658427392e-02  2.2959028946758275e-02  2.4087021977741010e-02  3.2659500083050561e-02  3.4346452274940799e-02  3.1743796623543659e-02  3.7562345630953162e-02  3.7017833787557741e-02  2.7469067960899693e-02  4.1086384480214296e-02  4.1371316507941229e-02  2.5261077694106699e-02  3.6022466455939962e-02  3.4240442234136505e-02  3.3489261477075954e-02  3.2147312380064463e-02  2.6416989272465264e-02  2.7962939405315072e-02  2.3857396805630468e-02  2.3405334082788408e-02  2.2611387529932178e-02  2.2562158489084643e-02  2.2178098505939894e-02  2.2570099550550910e-02  2.2148826713257890e-02  2.2152038247418473e-02  2.5933014083706588e-02  2.2191023880466280e-02  3.0948146412346993e-02  3.8555781698170422e-02  3.8886192271060806e-02  3.1330868396273810e-02  2.8798131920907268e-02  2.6169653738508644e-02  2.2186049700148688e-02  2.2206172852120780e-02  2.6164022273047930e-02  3.0091455732129707e-02  2.3252901951270933e-02  2.7188144181560812e-02  2.9304360559477466e-02  2.8444733226499999e-02  2.6987836494526241e-02  2.5550025639458452e-02  3.9394471644136481e-02  3.7732182481129403e-02  2.6101986803726492e-02  2.4895047413724114e-02  2.8320782109808332e-02  2.4549403127407502e-02  2.6735158994804012e-02  3.8152442756253256e-02  2.5890656660629507e-02  2.9218713834837502e-02  3.0178071485667476e-02  2.5210087464388121e-02  2.8181515956185694e-02  2.3763334275717741e-02  2.6958111919888963e-02  2.4875934892149495e-02  2.5061077415948235e-02  2.6883517341312470e-02  2.5250025817132149e-02  3.1046319291471256e-02  3.5224483783922622e-02  2.7114183992610227e-02  3.3138671139022288e-02  2.4508783628066414e-02  2.3667169586035142e-02  3.0334357298820405e-02  2.8412543454470369e-02  2.3641470230354806e-02  3.3963278367907565e-02  3.1176736463965501e-02  2.9080851257615028e-02  2.4375173477988107e-02  2.8127207559407768e-02  2.6518633253858035e-02  2.7909559369258489e-02  2.9899743524770057e-02  3.1570810915395466e-02  3.1786321904537770e-02  3.6669065359282868e-02  2.7994964578574481e-02  3.3589344479259209e-02  2.6124437057476677e-02  2.3570745888596624e-02  2.3432742078090981e-02  3.1793134493099291e-02  3.7324478292953316e-02  3.1178645473892520e-02  2.9728103135609821e-02  3.9370104480020179e-02  3.9505071222139865e-02  3.0218771811590339e-02  2.5968498536685695e-02  2.5862928429515989e-02  2.9373489157425943e-02  3.5498764578757412e-02  2.4710981354237375e-02  3.1816067743081808e-02  3.0737696762211827e-02  3.0190389995259585e-02  3.4364355853828965e-02  3.4178956876333419e-02  2.4622597487972075e-02  2.3575879437069694e-02  2.7201522631892950e-02  2.8005478916201566e-02  3.7923753154517056e-02  3.8532344655016093e-02  2.7821117826429299e-02  2.9577542048948306e-02  2.9410088344184682e-02  3.5744799950679723e-02  2.8501532279724587e-02  2.9731357705402466e-02  3.6030360877594543e-02  2.4046973474548337e-02  2.7898717280769997e-02  2.8103315599379976e-02  2.4385962769652946e-02  2.3134402702045673e-02  2.5988231408924804e-02  2.2972052475925268e-02  2.3105019732913078e-02  2.4659116162795158e-02  2.5362157949371307e-02  2.5432386105886766e-02  2.4857148509123073e-02  2.5064199551197201e-02  2.4250781236506137e-02  4.2108440080396659e-02  4.0834393604691231e-02  4.0321688015326089e-02  2.3475141074962392e-02  2.3637320711831823e-02  2.4831241480501077e-02  4.1114621407429872e-02  2.8377940668267806e-02  3.3771118042762706e-02  3.3018713505907162e-02  3.2030312200796753e-02  2.6669385582351369e-02  2.9089913633639056e-02  3.3615219501264552e-02  2.6989071515414378e-02  2.6722347453945222e-02  2.3170573655130932e-02  2.3064373609202288e-02  2.3110175306304732e-02  3.7544003307111877e-02  2.7403274655545207e-02  2.7392360114213778e-02  2.9935584135070487e-02  2.4750888548971166e-02  2.9892763107385398e-02  2.7428038020550393e-02  3.5600283004453684e-02  2.9166894873386636e-02  2.8431001801124414e-02  2.4798133212191039e-02  3.5394224952486134e-02  2.4359209784811289e-02  2.5592027757364924e-02  3.3529593427855317e-02  2.3059782675693356e-02  3.7006089077306979e-02  3.2389791815856418e-02  2.5605058990318647e-02  2.6143337575501066e-02  2.6261130119957166e-02  2.3238484378725704e-02  3.0947138649116950e-02  3.1977519793208301e-02  2.2803770254473062e-02  2.4145377339062371e-02  3.4377944799565831e-02  2.9050483955198301e-02  2.8925504249891047e-02  2.5631843615384502e-02  2.7798104787552645e-02  2.2813514651115287e-02  2.6115962776032987e-02  3.0950545299448549e-02  2.3421646064745786e-02  3.2086400312737212e-02  3.6542208312986678e-02  3.8658192689241949e-02  3.8073433127746165e-02  2.8942689045222427e-02  2.9439748170807075e-02  3.3226733759669405e-02  2.2802517816111222e-02  2.2806693079615394e-02  2.3188520143217518e-02  2.3655106702930008e-02  2.2645118780436319e-02  2.6338058711299475e-02  2.5088862916204883e-02  3.1093232870707942e-02  2.3258155390872753e-02  2.9951158338227916e-02  2.5845005620327363e-02  2.6037777657500465e-02  2.7152477230637431e-02  3.1422425198733638e-02  3.0749686659438787e-02  3.9155235069378083e-02  2.4868414545809892e-02  2.9476265825617885e-02  3.3755754228888303e-02  3.2674297831723834e-02  2.3199713314208611e-02  3.5274898144761486e-02  3.5136804867602768e-02  3.6109302079855465e-02  3.4508681360760816e-02  2.6389194447120668e-02  3.1952691781741427e-02  2.8367091638166399e-02  3.0077031370301321e-02  2.6818345631554216e-02  2.5649947114568677e-02  2.3930664764074183e-02  3.0279599457621910e-02  3.2169067933072157e-02  3.7426378156827041e-02  2.4746414956995054e-02  3.5298982180934482e-02  3.5287485800347240e-02  2.4852141349536418e-02  3.0662591053020039e-02  2.9094693573719920e-02  2.3825687525909873e-02  3.1575868048542954e-02  3.8548437867012640e-02  3.4716012084888108e-02  2.6532481113225332e-02  2.5195223666385342e-02  3.0639339960614121e-02  2.5333784078934656e-02  2.3540820145090024e-02  3.0184481190133311e-02  3.6034461909524487e-02  2.2764291584163203e-02  3.2724222880022157e-02  3.2361426352344291e-02  3.2905258055180783e-02  2.4643631002036401e-02  2.8853214642844034e-02  3.0207904630835274e-02  2.7858027365940091e-02  3.7623886251538674e-02  3.3853139386883252e-02  2.2513393973697438e-02  3.2639390176022555e-02  2.7019816073010964e-02  2.7144783392048250e-02  2.4678624425857280e-02  3.1684751532482652e-02  3.2817888952173441e-02  2.7668367236320230e-02  2.8074839495137800e-02  2.7032932233852187e-02  2.6338741160996312e-02  3.6654710784171811e-02  3.0854292753449728e-02  2.3195350477940403e-02  2.4192782808637802e-02  2.5876539758663095e-02  3.2128542449568878e-02  2.6550030981294121e-02  3.1009131977680460e-02  2.6057465967530769e-02  3.6352877979561875e-02  2.3990537897365303e-02  2.8683593033061592e-02  3.3776838495469697e-02  2.7632590822310371e-02  2.3135821114136583e-02  3.5573684090852146e-02  2.9004446574174104e-02  3.0983156953289508e-02  3.4524998247104075e-02  2.4044930430521978e-02  2.9144087483622846e-02  3.3899522806482688e-02  2.4650330498896915e-02  2.3411397773726611e-02  2.4273281454782199e-02  2.2564066137379005e-02  3.4192651810184625e-02  3.6656687855010847e-02  3.1910206619800277e-02  3.6235461296078096e-02  2.8612943236397081e-02  2.9556073323013760e-02  3.2403979197169717e-02  2.5308320611615424e-02  2.5547112119196410e-02  3.1634326680442665e-02  2.4411946572982377e-02  3.4875672241600909e-02  2.9596224781061595e-02  3.7270695403006121e-02  2.6672582463273725e-02  3.6040269335895457e-02  3.5115082237420547e-02  3.2906955111427084e-02  3.1486963057408335e-02  3.1493977439218467e-02  2.8287410479903064e-02  2.7607416185661711e-02  2.9749395806949814e-02  3.8631524600353753e-02  2.2652616298920181e-02  2.4345830120813830e-02  2.4264925830110345e-02  2.4338090632938063e-02  3.3023823541133097e-02  2.2575451672375010e-02  3.6186794855646201e-02  3.3527386990239265e-02  3.2897785362415950e-02  2.5419816718047484e-02  3.0539530477057514e-02  3.0470622752811018e-02  2.5389731309420255e-02  3.0051590706737415e-02  2.2140063300121322e-02  2.3544186373316470e-02  2.6888612010827411e-02  2.5254935873677675e-02  2.7290213828661928e-02  2.5184605555485622e-02  2.6286321109921889e-02  2.9307423040163427e-02  3.2538541036208832e-02  3.9189794440691594e-02  2.2177706559787659e-02  2.2859385842196007e-02  2.3252295406726832e-02  3.4686241564184941e-02  2.7857661557513170e-02  2.8217789274835828e-02  2.7738925789591435e-02  2.3417289408114057e-02  3.4284156608751525e-02  2.5716340338432626e-02  3.4347223298747433e-02  3.4202146436241788e-02  2.6356571966496760e-02  2.8161750458506073e-02  2.6667064668655208e-02  2.3138008926993078e-02  2.3181155856405081e-02  3.3280487012642808e-02  3.5681794981250764e-02  3.1637470736854925e-02  2.3750818783660668e-02  2.4877531582100265e-02  2.7469233799521656e-02  2.8113599329785029e-02  2.7607468425962824e-02  2.6936181206395328e-02  2.6264894375070985e-02  2.5076344457393377e-02  2.5322328443895870e-02  3.2456362082521839e-02  2.2167479062560516e-02  2.5485590966960885e-02  2.5654165185832325e-02  2.6470420228049192e-02  2.2804060711614105e-02  2.3757194635340408e-02  2.2897935341413534e-02  2.2168287017481171e-02  2.5366559605170830e-02  2.5274516943804469e-02  3.3802315551129301e-02  3.3676201727824907e-02  2.9045733338632734e-02  2.4539273735246243e-02  2.3223552633545922e-02  2.8690589042158099e-02  2.2793150922400557e-02  2.3991316606920821e-02  3.1404232023405095e-02  3.0861186200729765e-02  2.3698541992679966e-02  2.4991626326815401e-02  2.8661645585995130e-02  3.4882021571080238e-02  2.6546263053303012e-02  2.4204913879262924e-02  2.4159292012166416e-02  4.0100526600836905e-02  4.0141074082651100e-02  3.9089835257995996e-02  2.7723153014478558e-02  2.2788144602572419e-02  2.8110790821623596e-02  3.5744721257704344e-02  2.2808424352050702e-02  2.4132225750746208e-02  3.0055998696412241e-02  2.8573687462715436e-02  2.5522275581102944e-02  2.2772244316697339e-02  3.0081612104358432e-02  2.4162997546808378e-02  2.2847062919882838e-02  3.6001623590101221e-02  3.0514265400736724e-02  2.9006805539328773e-02  2.4110668102864777e-02  2.2778646864041865e-02  2.8420091329380882e-02  2.7461964841341703e-02  3.7676462914264082e-02  2.9592344615839473e-02  2.2201111035707294e-02  3.1914185194110802e-02  3.4658989423024242e-02  3.1713968473343762e-02  2.8594549083020483e-02  3.2401757686223595e-02  3.2044966097604453e-02  3.3533485295816651e-02  2.4141948461505122e-02  2.7177252229076503e-02  3.9792509346549293e-02  3.1749727555310928e-02  3.6855668121669113e-02  3.7268307997500576e-02  3.6772317767031590e-02  3.7973786731661567e-02  3.8002825415068227e-02  2.2796344223878225e-02  2.2148411710281479e-02  3.1271089855957231e-02  3.0867201251234971e-02  3.1393449902029559e-02  3.1117315413183525e-02  4.0613112616737307e-02  2.7881738986663650e-02  2.3658609229087139e-02  3.4117072632485201e-02  2.4626585065493513e-02  2.4173328998390396e-02  2.3918203009769771e-02  2.6821292697961050e-02  2.4734110933777462e-02  3.3555410193520839e-02  2.5710259665118102e-02  3.0518217928938499e-02  2.4373342358232668e-02  2.3871777034779253e-02  4.1680700373715247e-02  4.1421102497679288e-02  2.5482666559369826e-02  3.1585205166766564e-02  2.3621863520560261e-02  4.0857576942263406e-02  2.5805828637704132e-02  2.2727200769317227e-02  3.6618349323916964e-02  3.6750571408025290e-02  2.8672776389393934e-02  2.5785581860617680e-02  2.9649600648397705e-02  3.3655939180541328e-02  2.2553274849680598e-02  3.9712228713671013e-02  2.4460870088591095e-02  2.5927887898487583e-02  3.4357355730260539e-02  2.5039997812870432e-02  3.8257902196407817e-02  2.9080060870842188e-02  2.5379817883414466e-02  2.6196731715821094e-02  2.7763174288076675e-02  2.5872832909201279e-02  2.8416650728653185e-02  2.9521128141133557e-02  3.2821195560733332e-02  2.8118237659496483e-02  2.6539532002064610e-02  2.3432513197205317e-02  2.2756327198803317e-02  2.5636967249986767e-02  3.2602947224273295e-02  2.3193911659157671e-02  2.2776379518814890e-02  3.2861055472500331e-02  2.2655961233066280e-02  2.2607305679002907e-02  2.2645262199007136e-02  2.3458468272321606e-02  2.2868096007613949e-02  2.2644871104560305e-02  2.9430349199607561e-02  2.2674563568127675e-02  2.2179669010053631e-02  2.7816897555070046e-02  2.9054833813368770e-02  2.2161622434668331e-02  2.2174488532412658e-02  2.2175852226452145e-02  3.4488807655561456e-02  3.3233510931244409e-02  3.1973603669643837e-02  2.2579616518113806e-02  3.7009770845150537e-02  3.5394866139940064e-02  2.6560986888575430e-02  2.6882736356393381e-02  2.2889666878473592e-02  4.0452473915812130e-02  2.4741047690018749e-02  2.2189428495595277e-02  3.7926132248269802e-02  3.0315502612034674e-02  4.0719534905005066e-02  3.9511972809477061e-02  2.2541692565680435e-02  2.2196443294108244e-02  2.2132723585541147e-02  2.2346048926068288e-02  3.0702410294068647e-02  2.2580733761205493e-02  3.8264954612320962e-02  2.2196078635790126e-02  2.2229342821373017e-02  2.2181766760326464e-02  2.6996056161291231e-02  2.4971582410763363e-02  2.9553804637100549e-02  2.3198779562824855e-02  3.0429266079073706e-02  2.3327932740142436e-02  3.7402888468319587e-02  3.7653409989851644e-02  3.8560725246762073e-02  2.4183817793965917e-02  3.8874004787337796e-02  3.5646543343497573e-02  3.7931139351846450e-02  2.6425017428954031e-02  3.2487344101900094e-02  3.3654728792298270e-02  2.5825374040237523e-02  3.0718471408276930e-02  3.0131147236350349e-02  2.9565247559454888e-02  3.1970267577561863e-02  3.7122720596786195e-02  3.8284321219687070e-02  2.4073098501070086e-02  2.7667276858194607e-02  2.7025485256658394e-02  2.4769789087890220e-02  3.6812096181085045e-02  2.2841540985893801e-02  3.0311160179866608e-02  2.6187895053934804e-02  3.3494939261937938e-02  3.5003932381108327e-02  3.0787674114798051e-02  2.6619044055050983e-02  3.0620643764803845e-02  3.4187369168940031e-02  3.3661217419290561e-02  2.6823539899297276e-02  2.3766653505871160e-02  3.5341572867552913e-02  2.4900976996300381e-02  2.4427720317070436e-02  3.0826358627414702e-02  2.8708100616848798e-02  3.5347839864807593e-02  2.8294326536249845e-02  3.6988906011596490e-02  2.4167151651927291e-02  2.9102898981345493e-02  2.8758739288921663e-02  2.5505725914881060e-02  2.6753423483866386e-02  2.6500613268264629e-02  2.5669797189867949e-02  2.5772920179909446e-02  2.5325301524856118e-02  3.1363405041585857e-02  2.6153375633803568e-02  2.8265466508232705e-02  3.1803587293548444e-02  2.7579957803065231e-02  2.7237485586376869e-02  2.3704406635242477e-02  3.0311501096109056e-02  2.7596976017694425e-02  2.7256617792427659e-02  2.5946242333620768e-02  2.6625373293275519e-02  2.9859199669887797e-02  2.9599333580466108e-02  2.8738082772380134e-02  3.3138425957473329e-02  2.4813952696221657e-02  2.4475459276111812e-02  2.4374678963089313e-02  2.4844029525148716e-02  2.5237534061130214e-02  2.4480382033193152e-02  2.4111558481434672e-02  2.9600141673979213e-02  3.0556141789837395e-02  2.4227031493292209e-02  2.2928309246174866e-02  2.4688105449498541e-02  2.8798043499379488e-02  3.1107363645130736e-02  3.2946844084060171e-02  2.9298401310254053e-02  2.6132637423602799e-02  3.5629967389295955e-02  3.1567376545242172e-02  2.3872650847758050e-02  3.6168019246009687e-02  2.7015934218271635e-02  2.5488149312724823e-02  2.5096806911588943e-02  2.2841906042516350e-02  2.5253333578143331e-02  2.3296859191964624e-02  3.1043820485720731e-02  2.9760865298868650e-02  3.1117120183360318e-02  3.2228499318297986e-02  2.6743393863696278e-02  2.6527633798431177e-02  2.7907047411031907e-02  2.3661651104278890e-02  3.2722159607874078e-02  2.9646491405054383e-02  3.1080222073646451e-02  3.1645161223121047e-02  2.4351581785064521e-02  2.3087807182316494e-02  2.6493209216398850e-02  2.3096201425055484e-02  2.6406850427013039e-02  2.3726311578082752e-02  2.3843764111378601e-02  2.5667717164949925e-02  2.9659609851077691e-02  2.3657767864403434e-02  2.5502597011102194e-02  2.6662318059532196e-02  2.4168443439731263e-02  2.4787044237425414e-02  2.5286863721166002e-02  2.3993988919200081e-02  3.20609427853