<?xml version="1.0"?>
<VTKFile type="UnstructuredGrid"  version="0.1"  >
<UnstructuredGrid>
<Piece  NumberOfPoints="6454" NumberOfCells="12638">
<Points>
<DataArray  type="Float64"  NumberOfComponents="3"  format="ascii">0 1.5 0  0 0 0  1.5 0 0  1.5 1.5 0  0.75 0 0  1.5 0.75 0  0.75 1.5 0  0 0.75 0  0.75 0.75 0  0 0.375 0  0.375 0 0  0.375 1.5 0  0 1.125 0  1.5 0.375 0  1.125 0 0  1.5 1.125 0  1.125 1.5 0  1.0625 0.4375 0  0.4375 1.0625 0  0.5625 0.375 0  1.125 0.9375 0  0.3854166666666667 0.6979166666666666 0  0.8049568965517241 1.130387931034483 0  0.28125 0.28125 0  1.21875 1.21875 0  0.2175662878787879 0.9079071969696969 0  0.5625 1.303571428571429 0  0.8290441176470589 0.2738970588235294 0  1.303571428571429 0.5625 0  1.2578125 0.2421875 0  0.2421875 1.2578125 0  1.010416666666667 0.6979166666666666 0  0.2051282051282051 0.5216346153846153 0  0.9856455736880344 1.297298524562678 0  0.7653719096334186 0.5079390451832908 0  0.5481770833333334 0.8606770833333333 0  1.039462506743128 0.2044177382376396 0  0.5828641541157527 0.6178675878563986 0  0.9136904761904763 0.8913690476190476 0  1.3125 1.03125 0  0.6409183354192741 0.1798341677096371 0  1.281668526785714 0.7820870535714286 0  0.1875 0 0  0 0.1875 0  1.5 1.3125 0  1.3125 1.5 0  0.1920012972225798 0.7153938510340165 0  0.4043073677566794 0.4982626425332328 0  1.054735085357395 1.117171638214202 0  0.9375 0 0  0.5625 0 0  0.1875 1.5 0  1.3125 0 0  1.5 0.5625 0  0 0.5625 0  0 0.9375 0  0.5625 1.5 0  1.5 0.1875 0  0 1.3125 0  0.9375 1.5 0  1.5 0.9375 0  0.4468932545895913 0.1802144181965304 0  0.7987562970593343 1.318357727289711 0  0.6320399113235965 1.037924776639822 0  0.2603996068459564 1.080712106845956 0  0.3802379261363636 0.8658558238636362 0  0.3950892857142857 1.331473214285714 0  1.229910714285714 0.4095982142857143 0  1.13745405880473 0.5879074784276126 0  0.7482946595664349 0.917427298948138 0  0.8625423372573767 0.63562835295355 0  0.9012540315035069 0.4192242537897745 0  0.6862861647268528 1.220560482834343 0  0.1224516396650128 1.023194379059598 0  0.125 0.28125 0  0.3042571223994863 0.1326690407998288 0  0.4149781713917952 0.3488154858246145 0  1.359375 1.171875 0  1.3359375 1.3359375 0  1.131854448751258 1.346034816250419 0  0.84375 0.1212988551125148 0  0.1361607142857143 0.1361607142857143 0  0.691638521804216 0.3135510227244841 0  1.131379139752747 0.7872570780892659 0  0.9688853304056201 0.5429870982608649 0  1.134057265332395 0.3075921335077801 0  0.1060987903225806 1.21875 0  0.1387129645862553 1.361715427487219 0  1.393901209677419 0.28125 0  1.361287035413745 0.1382845725127811 0  1.21875 0.1060987903225807 0  0.3601433665263453 1.180455866526345 0  0.5483798738512705 1.157949853770241 0  1.36815753200686 0.4172967302747542 0  1.187531723571597 1.085953361785798 0  1.401785714285714 0.65625 0  0.65625 1.401785714285714 0  0.09804407994526333 0.84375 0  1.402254384056937 0.84375 0  0.28125 1.403363735808893 0  0.925464184745229 1.040966878346683 0  0.9340282126721275 1.174186719212852 0  0.8797957988728348 0.7651628218565172 0  0.9934051945542568 0.3266495984636094 0  0.203125 0.3887553418803418 0  0.3141644363520071 0.590454276924375 0  0 0.46875 0  1.254999444628736 0.9118761107425289 0  1.03125 1.5 0  0.3213923331757561 0.9738827583030052 0  0 0.65625 0  0.1159730568910257 0.609375 0  0.5141588149450601 0.7319349350549398 0  0.5326188770927806 0.499793044891493 0  0.6693710930845284 0.4331752184013763 0  0.7121702197229691 0.6260790780451906 0  1.234475471272342 0.6664938523856012 0  1.098390770327214 1.229886041743451 0  1.013464781580893 0.8203484622190179 0  0.2952629260823795 0.7791860223918741 0  0.4928385416666666 1.401785714285714 0  1.21875 1.5 0  0.6298376402880013 0.7702339567996885 0  0.7848608254810038 0.3893687681820236 0  1.5 1.40625 0  0.4622923140598757 1.236370233688302 0  0.4667991207677928 0.9473088592382519 0  0.2981266305022628 0.4537778927841646 0  0.84375 1.5 0  0.9008085981204581 1.384216576384643 0  0.9616882272291621 0.1155730914816442 0  0.5035849743784865 0.2782669836795798 0  1.009598009491631 0.9590831193486247 0  1.105310675430652 0.1118663280349183 0  0.9288474621627256 0.2227857609567891 0  0.7464170347051563 1.031945227193052 0  0.1125198733612451 0.4565759846003609 0  0.841690222029119 0.9722978654718903 0  0.4672907609250232 0.5973206048957169 0  0.5437787095683263 0.1151781905475824 0  0.7536044163845748 0.1896192335637668 0  0.65625 0 0  0.7049920363331066 0.09569941760663599 0  1.40625 1.078125 0  1.39081588470667 0.9535067694133395 0  1.40625 1.5 0  0.6375104178177308 0.9268732242701165 0  1.003645772935292 1.399729634730415 0  0.1610182417168329 1.124880958145783 0  1.304862449892061 0.3348605478786471 0  0.8685031591756179 0.5174815394805063 0  0.203125 0.2142857142857143 0  0.46875 0 0  1.236252628961601 1.388617949258287 0  0.6528472422531054 0.5380411271234069 0  0.8059365139027533 0.8342920789922936 0  1.210984939277725 0.5129097255512943 0  1.166392387042105 0.1947779113806861 0  1.03125 0 0  1.112027098777656 0.6868999874317245 0  1.4091796875 1.2626953125 0  0.7056210334910562 1.122831931927321 0  0.8445532731910484 1.225781273471752 0  1.401785714285714 0.5192199888552865 0  0.5315992325579575 1.02511262900491 0  1.40625 0 0  1.5 0.09375 0  0.09375 1.5 0  0 1.40625 0  0.09828267889765753 0.7453580504435201 0  0.2137299928547555 0.6195416563936835 0  0.191293077366709 0.8134420362003882 0  0.395652989337951 0.09620832696794322 0  0.3786395303236629 0.2546156254865724 0  1.105082759698279 1.033286095599126 0  0.09375 0 0  0 0.09375 0  1.269539180892899 1.136742542678697 0  0.4693126788152344 0.427799606155492 0  0.6022922682526717 0.2709632077670539 0  0.286537769267488 0.682999829576168 0  0.431696207163009 0.7833932160815852 0  0.6864071374811688 0.8459705255349474 0  0.7528727250742914 1.403406392299215 0  1.40615841291152 0.7499896558614008 0  0.46875 1.5 0  0.28125 1.5 0  1.5 0.84375 0  0.65625 1.5 0  1.5 0.46875 0  1.5 0.65625 0  1.21875 0 0  1.5 0.28125 0  0.84375 0 0  0.28125 0 0  0 0.28125 0  0 0.84375 0  0 1.03125 0  0 1.21875 0  1.5 1.03125 0  1.5 1.21875 0  1.203254432787244 0.991934092179911 0  0.7018429057870754 1.316240552056942 0  0.09232383443139219 0.9359101690420062 0  1.40390625 1.40390625 0  0.2348931380369949 0.995323396873026 0  0.3477301897825538 1.059746137541629 0  0.2397198755521273 1.168072125048833 0  0.21928098141281 0.08974206793316726 0  0.09164332482786468 0.3669827664371529 0  0.4604861261832766 1.147925083553434 0  1.208242546284113 0.8346339808272811 0  1.042270885119771 0.6063462845058686 0  1.320424270852333 0.6988339884515781 0  1.018211345242011 1.19612913087091 0  0.3232572989405801 0.3642302377411452 0  1.219683471513571 0.319825657354259 0  0.9022918689243919 0.3281052118114913 0  1.209245485719643 1.305564994554257 0  1.051234566759267 0.5217852582666107 0  0.3673510104646698 1.413627432420576 0  1.295769937043816 0.4720643981603306 0  0.3072023010063974 1.318381411439101 0  1.141690261405714 0.3964585327199988 0  1.132920129606929 1.151700997493917 0  0.4797323103182937 1.318677829548113 0  0.8975459458359925 1.296170152543854 0  0.464209749529605 0.8633392490855897 0  0.2934839260221656 0.8659218053661386 0  0.5291505402246311 0.1980703646347806 0  1.129554686622487 0.4893579115624633 0  0.6803878781969045 0.7035160631177291 0  1.32373046875 1.25048828125 0  1.32216796875 1.41767578125 0  0.5499851861317793 0.9439128053349233 0  1.022629866909724 1.040850270203209 0  0.5745442708333333 1.417645342938312 0  0.6210905905518814 0.07817000059074161 0  0.8251326424747147 1.051763251304391 0  0.9840195129520318 0.4094589843317338 0  1.335304710332526 0.8922471458140904 0  1.056578658899854 0.8909713350312058 0  0.6311277392046407 1.158870891931624 0  0.08048866130562571 1.097266504752301 0  0.7899471681381695 0.5900550615276262 0  0.787583911300231 0.6744258112570235 0  0.9253568605083915 0.6931779950154204 0  0.6069241236579608 1.236016193461046 0  0.9754544598564333 1.105608345312828 0  0.5891224709431884 0.6993621756793521 0  1.20518939408778 0.7458807514137317 0  0.7661039078070937 1.202429845202379 0  1.160750676252366 1.424456431149488 0  1.07906062607374 1.432028171475168 0  0.3800251736020173 0.4214243130004857 0  0.9386398271504294 0.6156244973145778 0  0.0625 0.234375 0  0.203125 0.2933407738095238 0  1.215434655272782 0.5908176357312523 0  0.3862873976850203 1.253958025454808 0  0.9642783311550196 0.7603191879845486 0  0.07907187269262334 0.5337704210040105 0  1.05323270401054 1.338218592033867 0  0.7809244217906405 0.07297738156489482 0  0.8538188665025647 0.1992768958275427 0  0.9002757663302332 0.06810835486946346 0  0.3896574912364178 0.6177519597715768 0  0.8312147565658268 0.4504658003252042 0  0.6060876899209792 0.4769383705177015 0  0.6973120163099531 0.973865749266754 0  0.2220506518942812 1.34123409472246 0  0.2016535060668421 1.419937676612376 0  1.067204461774397 0.7475876083618238 0  1.126113744622621 0.8622904019182541 0  0.3283697934586307 0.06033102762239553 0  0.3141768357227177 0.2102768223058998 0  0.8836591735735614 1.110539499889141 0  0.9335121559963067 0.9650712587476813 0  0.489881977219376 0.3554687673286838 0  0.1635028372004782 0.9601830799237989 0  0.190064339368102 1.055218085849877 0  0.4693032589410306 0.1089149617768512 0  0.826087350728517 1.388004148744978 0  1.071391321568866 0.357735705332231 0  1.056880377786583 0.2807740346831144 0  1.3359375 1.1015625 0  1.4296875 1.1484375 0  0.3906148988360577 0.9415494491776595 0  0.06145603826933142 1.359375 0  0.06985309644022948 1.2846420920388 0  1.438543961730669 0.140625 0  1.43014690355977 0.2153579079612006 0  0.161811455697184 1.281243264907209 0  1.2989767800824 0.08251937661177217 0  1.282654529021692 0.1634516867188552 0  1.343324227095839 0.2175851507697937 0  0.5747241214300347 1.087143402580354 0  0.1502172474800126 0.06370164366342397 0  0.07677312842259779 0.08704698619211086 0  0.06709364565267519 0.1592134266688963 0  0.1305803571428571 0
[...]
<PointData  Scalars="f_16-1"> 
<DataArray  type="Float64"  Name="f_16-1"  format="ascii">-2.7793400117781215e-06  -2.2063823737863533e-11  -1.2792564459439967e-13  3.5146263682696148e-04  -6.4621737837640479e-12  3.2326228253114889e-10  4.4434231812191264e-06  -3.0652816660554568e-06  4.0136041809710069e-04  -3.4358690427952768e-06  -1.4974527827688408e-11  -2.6822048776454295e-06  -3.0588752541231961e-06  -1.4707553083561852e-13  -1.7321159361743883e-12  8.2910219089967581e-06  5.2781647913188582e-04  2.0971196185966887e-12  1.1785947585804605e-05  9.0646267779721434e-07  6.0259488941648528e-05  8.4575429117470782e-04  7.0864422111195017e-04  4.3129820754015050e-06  4.6559742140169755e-04  -2.6798846304655648e-06  5.4530762653223360e-07  -7.5480511875114260e-12  3.4163580501248891e-11  -8.0540933287067857e-13  -3.0260102319545670e-06  2.7354670242467743e-06  6.9526842147147510e-04  7.0986641446216356e-04  1.2331120614521237e-06  7.8110141517619722e-04  -2.5583031151726839e-12  5.2401592970732205e-04  3.4505849340532894e-04  2.5696922341623263e-05  -1.0570656423774692e-11  7.1959490734977999e-08  -1.8666014387358666e-11  3.0843373914591908e-08  1.0013427491778534e-04  6.8563916302700209e-04  9.7118802413835780e-06  9.1105361125516323e-04  6.7073654903934514e-04  -3.6259965307244858e-12  -1.1920632524752738e-11  -2.7485811895928622e-06  -6.0307079436199837e-13  -1.2601596600135325e-15  -3.0636514437483775e-06  -3.0649267331477602e-06  -2.5093472009932130e-06  -1.4625155937461718e-13  -3.0073217896123851e-06  1.1925666742603033e-04  1.5029146058633403e-07  -2.8831865445374232e-12  1.3483196729974494e-04  3.2975652837286706e-04  -3.0520522430668500e-06  8.3201829469697861e-05  -2.9617119409481802e-06  -1.0434357828434247e-12  3.2568728691400634e-09  1.0694046421758745e-03  1.0264334340795658e-05  1.0821724323878461e-09  9.2814606285433664e-05  -3.0639673183884892e-06  1.4311622476687507e-03  -1.9156600381519354e-11  1.6963766313538894e-05  8.9209141799619090e-05  4.2311122756519167e-04  8.1887075308941740e-04  -5.3630007882244871e-12  -7.5878150019288911e-10  6.1513556506486585e-10  3.6282764523654792e-06  2.4972985638194724e-08  -1.7657275531634507e-12  -3.0423096042211084e-06  -2.9565828862665034e-06  -3.1075579798077006e-13  -4.3058841104609535e-13  -1.0367424762110105e-12  -2.8559813865106477e-06  1.8710909846471309e-05  -4.1147461151039512e-13  1.8133990775748995e-04  1.5770801544649505e-10  2.0804331109898131e-06  -3.0646267025699942e-06  5.7160756764860567e-08  -2.9006832521913103e-06  8.4723036710712999e-04  9.1347661318363633e-04  1.0547255858548728e-04  -3.8992419187490019e-12  2.2662573292400487e-03  1.1883087388778525e-03  -3.0283240831434350e-06  7.3611703938108778e-06  3.1884099818072485e-04  1.1531095865866369e-06  -3.0640737087585230e-06  1.6762568248410413e-06  1.3132775296767188e-03  1.3616327039642540e-04  9.1059905627000782e-07  8.5251018842041399e-05  5.4331558461512351e-09  8.0121809747540505e-04  4.3296625111761637e-05  6.2419222603992354e-05  -2.7623213145616983e-06  7.0142334266605575e-04  1.0971411167439093e-03  7.0791047166151091e-09  2.3189990593549815e-04  -1.7460426699097237e-06  1.1908170306106236e-04  1.6537879764760184e-03  2.8965098404593672e-05  2.4196472261541643e-04  -3.5255644262513917e-12  -2.8565698065389308e-08  2.5863203919315140e-04  -1.8668590218766086e-12  -4.3934282416092224e-12  8.5676065460292929e-04  2.3992031949597568e-04  9.1737923543576644e-04  1.1663107275671067e-03  -1.2311941773296739e-11  -8.2617856060174457e-12  -9.0367633220603684e-12  -8.7701827675036665e-12  1.2786883905028896e-05  1.8594544187414774e-06  5.1565415424154276e-04  9.2574196960305540e-04  4.5960429992318629e-04  -3.0591709612985303e-06  -6.1458716729118156e-13  1.3324833844277156e-07  3.1439109736355089e-08  -1.3469864187004786e-11  7.4354319029396932e-04  3.4126331776219567e-05  5.3018382846126047e-04  2.2558818598562832e-11  -1.4220621286117013e-12  -2.5493748843373756e-12  1.7731962703211345e-07  1.3460787052719576e-04  3.6855198625602574e-04  5.1688965482711558e-04  -1.7392084857053958e-13  9.9411301421682997e-05  -2.7315953093994374e-13  -1.3190760742677456e-13  -2.7683605232115423e-06  -2.9345143998657319e-06  -3.0383900163665978e-06  1.3699002636921966e-04  -2.0427599145883129e-06  -1.4672799214752540e-11  -6.6966052750298154e-10  2.4240638543712121e-04  -2.0439565152917255e-11  -5.0186574801257361e-10  1.4556851099295449e-04  5.0137507793170825e-05  -1.5949430178093274e-09  1.9961236744451524e-04  5.3190149484438800e-04  1.0892085757070299e-03  2.1949328944202500e-05  1.6000760655837305e-09  -2.6797515764133684e-06  -2.7234630239501419e-06  7.7630395541208847e-09  -1.5071759261357502e-06  -1.4836495873318885e-13  1.4472259407141136e-11  -1.0138090670489147e-12  -1.5082649975937400e-13  -5.0652771445851545e-12  -1.6087679467936219e-11  -2.4037763744490542e-07  -3.0652153521213342e-06  -3.0638796649220965e-06  -3.0399565752321749e-06  1.5829935773662573e-06  3.7360409357678168e-05  4.6014108146055571e-05  3.5151042792600758e-05  -3.0649597197572551e-06  3.9350006793236982e-04  -3.0013566779404484e-06  -9.2676814846669063e-07  -3.0532342702450198e-06  -1.7788008272130341e-11  9.4655997626285607e-04  2.5060469887809462e-06  2.6551413295957086e-06  3.3042264538475372e-08  2.5159153796617189e-09  9.0926015985784891e-04  2.6072744022438086e-04  -1.0628471416233007e-12  -5.0931991949395914e-12  7.0162674304778726e-04  2.2125479092772532e-09  -2.8664513634388608e-06  -4.8722412272335457e-13  -2.9868178667576512e-06  -1.7518808371709240e-12  5.5629709085845019e-04  -2.5470196839458417e-06  4.5112556565516271e-04  3.2450848908604704e-04  1.2713029759831471e-05  -6.5636261142760490e-12  7.7513218161715873e-11  5.3584679349401863e-04  2.7451690550427246e-04  6.1483830960982002e-04  3.5452300791713400e-04  5.1114569693392329e-04  -2.1750864220579551e-06  -1.0860249811687604e-11  9.8202670385694885e-04  2.0577754233848193e-11  1.0829488620661324e-06  7.1153667152540950e-05  8.3959672575483480e-05  -3.0612846262299501e-06  1.1141200421241991e-05  7.6931990356058215e-05  1.4222750845369297e-05  1.8774393267411278e-05  8.5007352141878631e-04  9.8615918714496198e-04  5.3077402525416948e-08  3.3775695398783538e-04  7.5285892136625621e-04  5.8447249027759462e-04  2.9437070673247274e-04  7.7048303768607938e-07  1.2669288038784273e-05  2.0520198724797471e-04  9.1018320731053151e-10  -2.9579842802570618e-06  2.5927566395255608e-05  -1.3712530736916902e-07  7.6439465634725145e-04  -6.3431249827790377e-12  -5.8800937778207602e-12  -4.2184611765911704e-12  1.5013374200376220e-03  2.5471753132752051e-08  1.8905015169919502e-05  9.1552793510421950e-04  -2.9721204379411428e-06  -2.8737118004577431e-06  4.4506106345494445e-06  1.9378416149511653e-05  -1.5918831906654687e-11  8.2514526687153486e-09  9.4135614083230281e-04  5.6726803494981789e-04  3.4903053829833622e-06  -3.0594713684252775e-06  -3.0618887302466978e-06  -1.3491602878593748e-11  8.6709663993482158e-05  -2.7090155694384164e-12  -2.5408916134360124e-12  5.4312074288354457e-05  3.1038152635506939e-05  3.6514242280966160e-05  -2.9696161226608451e-06  -3.0198904083898512e-06  -2.2819616701080610e-13  -2.5927980023467213e-13  -3.0177854382477042e-06  -6.5299220036608506e-13  -6.8907390859551742e-13  -4.6209822696771213e-13  1.0216296004102250e-04  -2.0040261934261978e-11  1.2360203526178594e-12  -1.0602372874597761e-08  6.5970594332342282e-08  -3.0172933433863544e-13  -2.8707515331146484e-06  2.5795927015194522e-06  -3.0307500756151896e-06  -2.6295347015584494e-12  -1.3269495178413921e-11  -1.9599137250808450e-11  5.6911911828862438e-08  -3.0482131318568892e-06  1.5263278470270203e-04  6.7162391156811048e-04  1.3959892347325084e-03  2.8349675068282859e-05  -2.7087018271065494e-13  -1.4704692508706860e-12  -3.0545545940366462e-06  -2.5327712705492693e-13  2.0292118830320929e-04  -9.2359022691224045e-07  -3.0242761287323504e-06  9.8821255712998113e-09  8.3737360901135696e-06  9.1658262766419556e-04  -3.4287821396832740e-12  1.2222106242610895e-04  -3.3339175854339821e-12  5.8445835189113258e-06  -1.9431333450830296e-12  1.1789014341437776e-03  1.4813596374472051e-03  -6.6340294643606049e-13  -1.2701824918248081e-11  1.7680660396229011e-10  -1.8013606054056671e-06  3.5669351284959829e-12  7.7278004002282590e-06  -4.4714325191273423e-12  2.6910888148527572e-04  7.5705349568616479e-05  3.1297130593110510e-04  -1.2390548786499109e-12  2.5764586877152215e-06  -3.0649456201559294e-06  -3.0412263168471710e-06  1.6610425897709189e-08  9.4665117371137606e-08  1.1113335858024325e-03  -3.0692967610610422e-12  7.8039883565535900e-04  -2.1052716749428015e-12  1.2916899695284533e-06  8.3435946380027294e-04  -2.7721115419564501e-06  1.1543743231562644e-03  2.7457093548316287e-03  5.2179565005718649e-04  -3.0645376679795178e-06  -3.0627322481130412e-06  3.7942281457177528e-09  1.6061471616869768e-10  2.2163708812184851e-05  -2.8798157755235596e-06  3.7821087166338012e-04  2.2853438327557088e-05  9.5062891340669981e-07  3.4028706329439857e-12  7.3180526995002282e-04  8.7261318237460289e-04  8.5317639308631177e-10  1.2387154434178037e-04  2.0912884200325008e-04  6.1347778386281070e-05  -3.0651378902794414e-06  5.0962856477849451e-04  -2.1807188445960908e-10  1.2656323483970513e-03  4.7741659552309697e-04  1.3620197172699232e-05  1.5305738246904628e-05  8.4874177914095377e-05  1.6888281237123698e-03  1.5389113319919985e-04  1.7891912539166093e-05  2.9076498008027464e-04  3.7654533348302281e-13  8.9587585526888859e-12  2.2016914092066145e-08  2.7320305708771650e-10  3.6719882853919308e-08  2.0817842390148928e-07  7.9980499968548661e-05  5.3679847670848704e-04  1.8654829032978368e-04  8.2983667516141101e-06  5.6085864328213819e-04  -2.9343302009132064e-06  5.6681805456420688e-09  5.9180636315531660e-10  3.2501665618105629e-04  1.3547078362079156e-08  2.4782643891781088e-05  2.8189979386679701e-04  -2.9027719741415152e-06  1.6946812726048477e-03  -1.6931146754716999e-13  -5.4340215927926730e-13  1.7328219037405181e-05  -1.5812530016368695e-06  -2.6102703837818669e-06  5.9778306059204492e-06  1.6469070693205919e-05  1.2435362231176708e-03  7.4940758184706402e-04  -2.7061404680598353e-06  8.3712891770432684e-04  6.5577353970813843e-04  7.4422687821932936e-04  3.1861262796178233e-06  8.3302791944301322e-07  3.6516151504489559e-04  4.4803112978773410e-04  7.7341703982374921e-05  4.7223737348253681e-05  2.5347021291454699e-04  2.4778989431469554e-04  7.4216662330723834e-04  6.2554903854666942e-04  -1.4153766576483540e-11  2.8772987486635987e-07  -2.2175985474397046e-06  -2.7065576363303324e-06  -1.0301513305591586e-12  3.0472296642695197e-04  -7.7060295255495175e-12  -5.1473795548336137e-12  6.4976737415784521e-04  5.7915470161196830e-04  5.2122983473577201e-05  -1.3767193038334420e-11  -3.9515526957947374e-13  1.6961210087499616e-06  -3.1450021135468019e-12  -3.0635456790142939e-06  1.5536184263212504e-04  -1.9883488113051172e-12  3.6725520986426516e-04  5.7430933858290548e-04  9.7967713415392753e-04  5.7429226918500947e-04  -1.1548838440859105e-11  -4.1484366036703166e-13  -2.1281721418148011e-06  -2.9716447952986918e-06  2.3207416178647614e-04  6.8098466794449825e-05  -2.1128225469527240e-11  4.2596752228729292e-13  -2.2840249581849138e-06  2.9612025132469773e-06  2.0594469083364780e-03  5.0836437898444555e-07  -2.0535620312426533e-12  -2.3792234238048397e-06  -7.7981112349917714e-13  -8.6609578433885346e-13  5.7984557958845314e-06  6.9932068147803190e-04  1.0426976160586247e-03  7.5457828236192280e-04  -4.7253163529856149e-12  -2.8207819200553119e-06  1.8623831393653741e-03  -1.3807409734059525e-12  3.1480037221627260e-10  2.4433411620924395e-07  -9.5840991686258410e-12  -7.3577484470648612e-12  -6.8303773654555284e-12  -1.7260456223914559e-11  -2.7251034890099609e-06  6.1274429364875042e-04  7.9431209260576901e-04  -2.9321348663995318e-06  2.7530655929037184e-04  2.1702272035737893e-04  -5.7259676766201006e-12  1.0503042731245874e-03  1.1076480796710804e-03  6.2133477586821502e-04  8.7845567263769141e-04  -8.5061619188951086e-08  1.8463461792328725e-04  2.1730135279437179e-05  -1.4428123211693905e-13  3.0693917478986059e-07  1.0366676676774083e-07  8.4750422158153232e-04  -3.0583198103018382e-06  3.9266151283366799e-04  -1.3721260495279439e-12  7.6962360143973458e-07  -1.7871221536225088e-11  -1.5359932948005219e-13  -2.2104272375438953e-13  -1.5744858795377739e-06  -1.1783502069610742e-11  -3.0599662213455506e-06  -3.0624557266351921e-06  6.7703588078974612e-09  7.6035964355431526e-04  -1.0426239680235274e-11  6.3187685179023271e-04  9.4663300602028334e-04  2.3537532130869947e-09  1.0572765430450623e-06  4.1210105577276781e-04  2.3587082148656401e-08  -3.0629410166768772e-06  -2.8164953723603522e-06  -2.8117907710886750e-06  -9.1086105466856123e-12  1.0109142596220362e-04  -1.2741834383471267e-11  -3.6575860621582205e-13  1.4251302745858350e-07  1.8484381997449916e-08  1.0986923988396308e-04  -3.0424947742762128e-06  7.2007560960242196e-05  -8.1596383280642260e-13  -7.1230260027046721e-12  -1.0320155674727069e-11  5.0374901349415495e-08  9.9056895660573911e-04  1.2545893809281076e-05  4.5926357853459629e-10  -1.4323685240078934e-13  6.4740020995790665e-11  4.8563092683184150e-10  3.1044048117161809e-13  1.2094540691317965e-09  1.2456400628210825e-05  4.0084166150256725e-05  4.7645656537766410e-06  -1.2367463983822133e-13  -1.0956087636778001e-11  5.0304212211792492e-04  -7.8928486398710325e-13  2.0610122273823371e-05  9.9033989499094897e-05  9.8608252685919002e-08  5.6262144624462732e-04  4.1033656161549046e-04  1.1082399912644499e-05  1.1312457761998724e-04  2.7221970507801879e-04  2.0597456184832977e-08  -3.4992726812954824e-13  -3.0007359480470627e-06  -6.4868482360484763e-07  2.8443712599561370e-04  9.5831666300760543e-11  1.4169242184839688e-04  -4.5143928881424150e-13  2.0338880676106356e-04  3.8634701407059478e-05  1.5407470648934197e-04  -1.9171451902707189e-13  -3.0467707701535237e-06  1.4157336146797104e-04  -3.0641898793485774e-06  -3.0069283861256415e-06  -2.0759274567130562e-13  -2.9290950122411335e-06  -2.8261949006653736e-12  8.1606976812129703e-04  2.5411440006093035e-04  -2.7742806768488761e-06  1.2343261432798626e-05  4.8190606303949054e-05  -3.7861732447558445e-07  7.4598896745550378e-04  7.0880148922118031e-05  3.0078140130390023e-04  3.3388886968447529e-09  -1.1925077645674351e-13  8.6213888588916696e-04  4.6717650942156589e-04  1.5483841013547666e-04  -9.3133161977902415e-12  1.9975221025772416e-05  9.1430232149589054e-04  4.4442375810883327e-05  7.3703630717035095e-04  4.1130583706979204e-06  -6.8758972663556491e-10  1.8739639231995935e-07  1.0367899111203654e-09  -3.0609733158080710e-06  -1.5135020831489258e-06  -2.9816262286520170e-06  -1.4958912501490251e-11  -1.5996432737233527e-11  -1.3877475325707676e-11  2.9245681983063572e-11  1.7972363465802874e-12  -2.2758717648847227e-06  4.9638565765299012e-05  4.7680523965446436e-04  8.9426525508908333e-10  -1.0593233665719100e-11  9.6706062537170014e-05  1.4232740711633317e-04  1.3745703885412294e-05  7.9485344535934073e-06  -4.2650282397562089e-13  1.3190734010857567e-04  3.9501544232057407e-04  9.6723989281184784e-04  6.7463776015884490e-04  5.5458450674568296e-04  1.2622709654845716e-04  2.6901025406868935e-04  -5.6970425779914203e-12  3.6036534510463044e-04  -3.0298033787464943e-06  -1.4886958619830223e-13  6.5875452401695494e-05  3.0958505886433455e-04  5.8497083804029836e-05  7.5535954088462614e-05  9.3412151754986527e-06  3.4521931857996187e-05  1.1882441467699742e-08  1.7793119854023279e-05  6.3691940536292184e-04  -9.6764499201448852e-12  -1.8461320387839479e-11  -5.3812468423695223e-13  -1.0491617084376501e-12  -1.1411534936305917e-11  2.2458984101960530e-09  1.7051288346718629e-03  1.1233863344602354e-03  1.1368204855178384e-03  -2.2176320448520111e-11  1.9126090288204394e-07  6.4285196218789203e-04  -2.5605843326600435e-12  3.3242366969596403e-04  1.1980388527451481e-05  9.0649051981115483e-09  7.7544266662436429e-10  -3.0243119868418911e-06  8.1463395976210655e-06  -3.0631007078064352e-06  6.0334716779330255e-05  2.9656467799478310e-07  -7.3630537826149896e-12  6.2327053961312056e-04  7.1413278816863325e-04  -2.8562304833804241e-06  -2.7755704703002486e-06  1.4448775336990098e-05  -3.0645521414969845e-06  -2.6765957808948381e-06  5.4409511434160613e-07  -2.1636872555005294e-12  -3.1091090579525129e-12  8.6315382291754837e-11  1.2289212038133464e-09  3.0259474547941040e-08  -3.0672011719112916e-06  -3.0652872962150060e-06  -3.0652349279005126e-06  -2.7025866745859896e-06  -1.2811058610876825e-11  -3.0535514865556408e-06  -1.3707311530615073e-12  -2.7648317055933732e-06  -1.9421288936494705e-11  -1.4529812924085004e-13  -2.9845233302774597e-06  -1.5523212226064466e-11  -4.2453627297347204e-12  1.3496600679190780e-09  3.3182989015174119e-07  4.0513155431646798e-04  6.5322119411040245e-07  1.4429033574668682e-04  3.1795456297055571e-04  4.0713734927619679e-04  -3.0651268748231521e-06  5.5856002147331360e-05  -7.6087708542880618e-07  -2.6501803301200661e-06  4.3467388955281212e-06  6.2701736989183204e-05  -2.6774715818321293e-06  1.5110459452001617e-12  8.8792684215800678e-11  2.5806376967049705e-11  1.9936760366655770e-04  6.6991149376917575e-04  6.0634137902844521e-05  2.7462963368599350e-05  2.1259162127245410e-05  -1.7485784770260245e-11  1.8705767008460801e-05  -3.0429219598792535e-06  5.9380696902575146e-09  -3.0650214589005752e-06  -3.0649720586362657e-06  -3.0645413143410834e-06  -3.0599157241472228e-06  -2.0429318041691290e-11  3.3365096150386232e-04  2.1955486215442586e-03  4.1742252204293935e-10  9.5493413923859391e-04  9.6878149549818940e-09  1.0753161721367369e-03  2.3481288070158053e-04  2.6468644956573537e-08  2.5101832563077082e-07  -3.0623428629375936e-06  1.1306625862518594e-09  7.2034258091694748e-04  3.1867992293386506e-04  5.6937582065986684e-10  7.2047916168470756e-05  -6.9473347535274208e-12  9.7278564739403887e-04  1.4819684371449413e-03  1.2334335492111335e-03  -2.4891223961377688e-13  -1.5241489606501821e-12  3.3149596484401299e-11  -9.1218214078781308e-12  1.6964293506913672e-03  3.3562796923488881e-12  -5.4395844129507067e-13  2.1413231408241025e-07  2.4948157680758603e-04  7.8555787352077682e-11  1.0040051597722836e-03  6.8788319110487937e-06  3.0517089939973319e-04  6.2580047205321686e-04  5.2638020824778486e-06  9.6563781177973614e-07  4.2911562769692334e-06  3.4035099465273212e-07  -3.0651537108333876e-06  2.9308863252078128e-06  -2.9071091669827252e-06  1.9362250859232397e-06  -3.0561857291422209e-06  -3.0558869542406206e-06  6.8394859961259777e-07  5.4289156467207363e-05  6.4594903531450907e-04  1.4793119035136503e-03  -1.2904435840996095e-12  -2.0570540504450566e-12  6.5385093149818445e-04  7.3581485658307148e-05  -3.0347075989402101e-06  -3.0409156940807798e-06  -2.3780561219410364e-06  -3.0570175192619359e-06  -6.1767326742889987e-13  -2.9470200125098258e-06  -2.9727259874799076e-06  -3.0194642701485313e-06  -2.9897293436381709e-06  4.1315383965948721e-04  1.6921170305628108e-04  1.4987710444187503e-07  2.4200816285191873e-06  1.8908238897212938e-06  4.2960171173398976e-06  1.0762329788750223e-05  -2.1300567827756782e-13  -2.1320094193818641e-06  5.6690210515837273e-05  -1.1411362400817288e-12  -6.3236927664038063e-12  6.0415560614868744e-04  1.8884215013984479e-03  -1.6050657339924373e-12  6.2269564866633239e-04  5.3925653598777868e-04  7.8220908049505709e-04  3.7434240749607635e-05  -8.2327229232947431e-13  -2.9046618625690192e-06  -2.8223395449022366e-06  1.6645418594651314e-06  3.0430852160358715e-05  3.0919207547381732e-06  2.1226979826001317e-05  8.4866040028911695e-04  9.2711423332598813e-04  1.0321396854843375e-03  -3.5037210203359632e-13  3.7042559072954187e-05  -2.7777828328994561e-06  -2.9276025472539864e-06  -3.1416051301522767e-11  -1.3741831052718746e-12  -2.8042282519318458e-06  -1.3653588905434678e-12  -3.4577367008044746e-13  -2.2216823238652914e-06 