<?xml version="1.0"?>
<VTKFile type="UnstructuredGrid"  version="0.1"  >
<UnstructuredGrid>
<Piece  NumberOfPoints="6486" NumberOfCells="12696">
<Points>
<DataArray  type="Float64"  NumberOfComponents="3"  format="ascii">0 2.5 0  0 0 0  2.5 0 0  2.5 2.5 0  1.25 0 0  2.5 1.25 0  1.25 2.5 0  0 1.25 0  1.25 1.25 0  0 0.625 0  0.625 0 0  0.625 2.5 0  0 1.875 0  2.5 0.625 0  1.875 0 0  2.5 1.875 0  1.875 2.5 0  1.770833333333333 0.7291666666666666 0  0.7291666666666666 1.770833333333333 0  0.9375 0.625 0  1.875 1.5625 0  0.642361111111111 1.163194444444444 0  1.341594827586207 1.883979885057471 0  0.46875 0.46875 0  2.03125 2.03125 0  0.3626104797979798 1.513178661616162 0  1.381740196078431 0.4564950980392157 0  0.9375 2.172619047619047 0  2.172619047619047 0.9375 0  2.096354166666667 0.4036458333333332 0  0.4036458333333333 2.096354166666667 0  1.684027777777778 1.163194444444444 0  0.3418803418803419 0.8693910256410255 0  1.642742622813391 2.162164207604464 0  1.275619849389031 0.8465650753054845 0  0.9136284722222221 1.434461805555556 0  1.732437511238546 0.3406962303960658 0  0.9714402568595876 1.029779313093998 0  1.52281746031746 1.485615079365079 0  2.1875 1.71875 0  1.06819722569879 0.2997236128493951 0  2.136114211309524 1.303478422619048 0  0.3125 0 0  0 0.3125 0  2.5 2.1875 0  2.1875 2.5 0  0.3200021620376328 1.192323085056694 0  0.6738456129277992 0.8304377375553881 0  1.757891808928991 1.861952730357003 0  1.5625 0 0  0.9375 0 0  0.3125 2.5 0  2.1875 0 0  2.5 0.9375 0  0 0.9375 0  0 1.5625 0  0.9375 2.5 0  2.5 0.3125 0  0 2.1875 0  1.5625 2.5 0  2.5 1.5625 0  0.7448220909826522 0.3003573636608841 0  1.027298850574712 1.871151477832512 0  1.331260495098891 2.197262878816185 0  1.207917681892289 1.582765010956622 0  0.4339993447432606 1.801186844743261 0  0.6337298768939392 1.443093039772727 0  2.049851190476191 0.6826636904761904 0  0.6584821428571428 2.219122023809524 0  1.89575676467455 0.9798457973793544 0  1.437570562095628 1.059380588255917 0  1.502090052505845 0.6987070896496241 0  0.2040860661083546 1.705323965099331 0  0.2083333333333333 0.46875 0  0.5070952039991439 0.2211150679997147 0  0.6916302856529919 0.5813591430410241 0  2.265625 1.953125 0  2.2265625 2.2265625 0  1.886424081252096 2.243391360417365 0  1.40625 0.202164758520858 0  0.2269345238095238 0.2269345238095238 0  1.152730869673694 0.5225850378741401 0  1.885631899587912 1.312095130148776 0  1.614808884009367 0.9049784971014416 0  1.890095442220658 0.5126535558463003 0  2.323168682795699 0.46875 0  2.268811725689575 0.2304742875213018 0  0.6002389442105756 1.967426444210576 0  0.1768313172043011 2.03125 0  0.2311882743104251 2.269525712478698 0  2.03125 0.176831317204301 0  2.280262553344767 0.6954945504579233 0  1.979219539285994 1.809922269642997 0  2.336309523809524 1.09375 0  1.09375 2.336309523809524 0  0.9314042474388009 1.662973812215543 0  0.1634067999087722 1.40625 0  2.337090640094896 1.40625 0  1.141616997467638 2.069311773587991 0  0.46875 2.338939559681489 0  1.542440307908715 1.734944797244472 0  1.556713687786879 1.956977865354753 0  0.8264238995344066 1.975424467820646 0  1.466326331454725 1.275271369760862 0  1.655675324257095 0.5444159974393489 0  0.3385416666666666 0.6479255698005697 0  0 0.78125 0  0.5236073939200119 0.984090461540625 0  2.091665741047893 1.519793517904215 0  1.71875 2.5 0  0.5356538886262603 1.623137930505009 0  0 1.09375 0  0.1932884281517095 1.015625 0  0.8569313582417669 1.2198915584249 0  0.8876981284879677 0.8329884081524883 0  1.115618488474214 0.7219586973356271 0  1.186950366204949 1.043465130075318 0  2.057459118787237 1.110823087309335 0  1.830651283878689 2.049810069572418 0  1.689107969301489 1.367247437031697 0  0.4921048768039656 1.298643370653124 0  0.8213975694444444 2.336309523809524 0  2.03125 2.5 0  1.049729400480002 1.283723261332814 0  1.308101375801673 0.6489479469700392 0  2.5 2.34375 0  0.4968777175037714 0.7562964879736076 0  1.40625 2.5 0  1.501347663534097 2.307027627307738 0  1.602813712048603 0.1926218191360736 0  0.8393082906308107 0.463778306132633 0  1.682663349152719 1.598471865581041 0  0.7774174680851571 1.560004941327907 0  1.554204170364662 0.3898593897892066 0  1.842184459051087 0.186443880058197 0  1.358107417651776 1.696381759610015 0  1.18859291992392 1.77598670078022 0  0.1875331222687418 0.7609599743339348 0  1.339536743965101 1.422080365801479 0  0.7788179348750389 0.9955343414928611 0  0.9062978492805438 0.1919636509126373 0  1.256007360640958 0.3160320559396114 0  1.09375 0 0  1.174986727221844 0.1594990293443933 0  2.34375 1.796875 0  2.318026474511116 1.589177949022232 0  2.34375 2.5 0  1.672742954892153 2.332882724550692 0  0.2683637361947215 1.874801596909639 0  2.174770749820102 0.5581009131310781 0  1.443279522965991 0.8870068372898454 0  0.3385416666666667 0.3571428571428572 0  0.78125 0 0  2.060421048269335 2.314363248763811 0  1.088078737088509 0.8967352118723447 0  1.087825368444708 1.454931510884769 0  2.018308232129541 0.8548495425854904 0  1.943987311736842 0.3246298523011434 0  1.71875 0 0  1.85337849796276 1.144833312386208 0  2.3486328125 2.1044921875 0  1.407588788651747 2.042968789119587 0  2.336309523809524 0.865366648092144 0  2.34375 0 0  2.5 0.15625 0  0.15625 2.5 0  0 2.34375 0  0.1638044648294291 1.242263417405867 0  0.356216654757926 1.032569427322806 0  0.3188217956111817 1.355736727000647 0  0.5924956460852111 0.36112522004736 0  0.6594216488965849 0.1603472116132387 0  1.841804599497131 1.72214349266521 0  0.15625 0 0  0 0.15625 0  2.115898634821499 1.894570904464496 0  0.7821877980253907 0.7129993435924866 0  1.003820447087786 0.4516053462784233 0  0.477562948779147 1.138333049293613 0  0.719493678605015 1.305655360135975 0  0.9772457618587566 2.020350128938537 0  0.8764738248887107 1.826219722709673 0  1.254787875123819 2.339010653832026 0  2.343597354852534 1.249982759769001 0  0.78125 2.5 0  0.46875 2.5 0  2.5 1.40625 0  1.09375 2.5 0  2.5 0.78125 0  2.5 1.09375 0  2.03125 0 0  2.5 0.46875 0  1.40625 0 0  0.46875 0 0  0 0.46875 0  0 1.40625 0  0 1.71875 0  0 2.03125 0  2.5 1.71875 0  2.5 2.03125 0  2.005424054645407 1.653223486966518 0  0.1538730573856537 1.559850281736677 0  2.33984375 2.33984375 0  1.166539506212474 1.922878979538754 0  0.3914885633949916 1.65887232812171 0  0.5795503163042564 1.766243562569382 0  0.399533125920212 1.946786875081388 0  0.7866324979014098 2.127719094551316 0  0.3654683023546834 0.1495701132219454 0  0.1527388747131078 0.6116379440619215 0  2.013737577140188 1.391056634712135 0  1.17635437372994 2.213329084238133 0  1.737118141866284 1.010577140843115 0  2.200707118087222 1.164723314085963 0  1.697018908736685 1.993548551451517 0  0.5387621649009668 0.6070503962352419 0  2.032805785855952 0.5330427622570983 0  1.082699501358059 1.667818725183932 0  1.503819781540653 0.5468420196858188 0  2.015409142866072 2.175941657590429 0  1.752057611265444 0.869642097111018 0  0.612251684107783 2.356045720700959 0  1.902817102342857 0.6607642211999982 0  2.159616561739693 0.7867739969338844 0  0.5120038350106624 2.197302352398502 0  1.888200216011548 1.919501662489862 0  1.495909909726654 2.16028358757309 0  0.489139876703609 1.443203008943564 0  0.8819175670410521 0.3301172743913011 0  1.882591144370812 0.8155965192707721 0  1.133979796994841 1.172526771862882 0  2.206217447916667 2.084147135416667 0  2.20361328125 2.36279296875 0  1.395746985657004 1.556054166359645 0  1.704383111516207 1.734750450338683 0  0.9575737847222222 2.36274223823052 0  1.035150984253136 0.1302833343179028 0  1.383966125325753 0.7651479963479179 0  1.64003252158672 0.6824316405528895 0  2.22550785055421 1.487078576356817 0  1.760964431499756 1.48495222505201 0  1.276460980673788 2.004207003584658 0  0.1341477688427096 1.828777507920502 0  1.542261434180652 1.155296658359034 0  1.334627911613854 0.9696897472490321 0  1.30794231473696 1.119420615785191 0  0.7028260459857245 0.4438906910721139 0  1.625757433094055 1.84268057552138 0  0.9818707849053143 1.165603626132254 0  2.0086489901463 1.243134585689553 0  1.934584460420609 2.374094051915812 0  1.798434376789567 2.38671361912528 0  1.206314791201715 1.382064292497919 0  0.6333752893366955 0.7023738550008095 0  0.7796219811205605 1.42573253164258 0  1.564399711917382 1.026040828857629 0  0.3385416666666666 0.4889012896825397 0  0.1041666666666667 0.390625 0  0.989112246382566 1.543537365516289 0  2.025724425454636 0.9846960595520872 0  0.6602885475034063 2.086117390485779 0  1.607130551925032 1.267198646640915 0  0.1317864544877056 0.8896173683400176 0  1.755387840017567 2.230364320056445 0  1.301540702984401 0.1216289692748247 0  1.433170657577442 0.3331052752740999 0  1.500459610550388 0.113513924782439 0  0.6494291520606965 1.029586599619295 0  1.010146149868299 0.794897284196169 0  0.3700844198238017 2.235390157870766 0  0.3360891767780704 2.36656279435396 0  1.876856241037701 1.437150669863757 0  1.778674102957329 1.245979347269706 0  0.5472829890977179 0.1005517127039925 0  0.4669074189005698 0.3416784232954367 0  1.472765289289269 1.850899166481903 0  1.555853593327178 1.608452097912802 0  0.6708955559113426 1.646561631116984 0  0.8164699620322933 0.5924479455478063 0  0.3167738989468366 1.758696809749795 0  0.2788007305565096 1.605499483471246 0  0.7821720982350511 0.181524936294752 0  1.376812251214195 2.313340247908297 0  1.785652202614777 0.5962261755537186 0  1.761467296310972 0.4679567244718574 0  2.2265625 1.8359375 0  2.3828125 1.9140625 0  0.5279531607054191 2.071552361614785 0  2.397573269551114 0.234375 0  2.383578172599618 0.3589298466020009 0  0.1024267304488855 2.265625 0  0.1164218274003825 2.141070153397999 0  0.2696857594953064 2.135405441512016 0  2.164961300137334 0.1375322943529536 0  2.137757548369486 0.2724194778647587 0  2.238873711826398 0.3626419179496562 0  0.1001414910226386 0.234375 0  0.2176339285714286 0.3478422619047619 0  0.2503620791333544 0.1061694061057066 0  2.336445461915368 0.1250451055247424 0  0.2154004640409726 2.3918124
[...]
<PointData  Scalars="f_49-1"> 
<DataArray  type="Float64"  Name="f_49-1"  format="ascii">9.7886908548379913e-05  3.2649585429394515e-05  1.2955380956127865e-05  9.5819317542473635e-04  2.2849589716948154e-05  1.3525565596165336e-05  9.8917955219807077e-05  1.0778842595602901e-04  1.1843531900309068e-03  1.1269990329162723e-04  2.8027767541168577e-05  9.8254523074025633e-05  1.0264247661683377e-04  1.2789120942518608e-05  1.7441389084545860e-05  3.3508107410808273e-05  4.8536348253115674e-04  1.9156982162227871e-05  1.0422371637817814e-04  4.3630473148344486e-05  1.9824807931275248e-04  4.1593822308697107e-04  6.3813592165078408e-04  7.7685491703457751e-04  1.0613153330149084e-03  1.0587223961594189e-04  2.2239029282453657e-05  1.0107021321075413e-04  1.5894548753609780e-05  1.5876426071427853e-05  1.0123735262350688e-04  3.1095366456356558e-05  1.8508603290960386e-04  7.0012495479141769e-04  3.1979893725932541e-05  6.0246217708144879e-04  1.8771568451714926e-05  1.4892332774123960e-03  9.9109267665819481e-04  7.1084110929351248e-05  2.4601825839314668e-05  1.6925202715018360e-05  3.0097860002880775e-05  -1.4225640217078131e-06  3.0003185322640584e-04  1.2023105188778448e-03  1.0820389559149640e-04  2.3230574382941322e-03  1.3327668934708273e-03  1.9920908207834204e-05  2.5415021285637156e-05  9.7872551355110453e-05  1.4783180317000738e-05  1.2942329150158646e-05  1.0993888749649322e-04  1.0533006958443897e-04  9.8412915530026417e-05  1.2681850686785789e-05  1.0031217876202258e-04  1.2890602101932788e-04  1.4122296369557672e-05  2.7080974830687711e-05  1.2390448574134213e-04  1.3497719385102610e-04  1.2888302065920283e-03  1.0370675690404430e-04  1.1367529052326751e-04  1.6492746518336647e-05  1.0037904970952250e-04  1.8267708747136043e-05  6.2677676636940308e-05  2.1323711372126294e-05  1.0430454547893326e-04  3.5469642550717043e-03  2.8727485188704163e-05  2.8115474771064404e-04  2.3066842181942955e-04  1.0178032514514808e-03  1.1643088738618711e-03  2.1592631102618460e-05  -3.3088317541874905e-06  2.4080208311039408e-05  2.7229329552173317e-05  2.0799030140571457e-05  1.7643029075258992e-05  1.4052112953614976e-05  1.4426013639495670e-05  1.0246320405422076e-04  1.0151029276999643e-04  9.9696158595979437e-05  1.6341517211440880e-05  1.4568950546825159e-05  5.4909996278044147e-04  1.4588311469258584e-05  9.9928799692760548e-05  1.6924633047055675e-04  1.0668555666483895e-04  1.5108840312428155e-05  1.1178896963342621e-04  9.9302457276309123e-05  1.5141532143640225e-03  1.1234876341710068e-03  1.0257897133710976e-04  3.6085928139695565e-04  2.0010273463920484e-05  1.9574640688715494e-03  1.1133257962089076e-04  5.6609891682615180e-04  3.0156687670574771e-05  2.4475052361414695e-04  1.0501169674467013e-04  1.0882516310239791e-04  1.0943352188270145e-04  1.3905285109998755e-03  7.0401225181985149e-04  3.2165489166576760e-05  4.7428858989464421e-04  1.6982666627784411e-05  1.4108187123083303e-03  1.4847344006811233e-04  1.0996864498224448e-04  9.9603377277428159e-05  9.1980339828289762e-04  1.7957351332097743e-03  2.2850917595269874e-05  6.3161354198995134e-04  2.4015365762349210e-03  1.0218855986819951e-04  1.7666466889012291e-04  1.9751536120045552e-05  2.6427222762752231e-05  8.0278729174061779e-04  1.2364096053686272e-04  2.0644183031431995e-05  1.7666382467627000e-05  1.3770088516885199e-03  4.5633437857550669e-04  1.1760435127386085e-04  1.4309898374561085e-03  2.1223994392071551e-03  2.5774809274630945e-05  2.3147070868501430e-05  2.4183763201396834e-05  2.3820424067650186e-05  4.6040463145189531e-05  1.8896742932753234e-05  1.2085029236989268e-03  3.9606848761012081e-04  1.0297773476677076e-04  1.5235348964888409e-05  2.3938829338883247e-05  7.9888047581738340e-04  2.6606369934334531e-05  1.2987600589456502e-03  2.3749579682342360e-04  1.3527136299366872e-03  1.7171429745852330e-05  1.7019034331081398e-05  1.8732141102948251e-05  1.9501356798851825e-05  3.9738110108918952e-04  3.9426923119218447e-04  1.4203192203266904e-05  1.3963873244357816e-05  1.2880264979592583e-05  9.7845608981260462e-05  9.8778029002532291e-05  1.0777588175532654e-04  1.1553797276226308e-04  1.0701068582577206e-04  2.8329616811036620e-05  2.7705358079675662e-05  6.9011956025763369e-04  3.1479842120637940e-05  3.0810539354519717e-05  4.1384952310711328e-04  5.1128985710374004e-04  2.5132567825864530e-05  1.3588453488652113e-04  3.0587341517921307e-04  1.0330314404854170e-04  1.0653726859019270e-04  1.0232881777611762e-04  1.4844204285436011e-05  9.8324758481342650e-05  9.7970773223392133e-05  1.3732910710622666e-05  9.8531382526037385e-05  1.2983974546812384e-05  1.3238723701295147e-05  1.6323434659658194e-05  1.2720399956124528e-05  2.0997793482175790e-05  2.9112268302203752e-05  1.1322790093429142e-04  1.0669020727151490e-04  1.0413659867451599e-04  1.0159417207629577e-04  1.7002934883824480e-05  1.0305155639507037e-04  1.4278828710189180e-04  1.0542490135273962e-04  9.9950039208486583e-04  1.8352241368142888e-04  1.0490896241007558e-04  1.0394279368397124e-04  1.0247210406241517e-04  1.0129322113227603e-04  2.9760447800087619e-05  1.3562948888598046e-04  2.4304263402550517e-05  1.0391035924564954e-04  1.9895477464202278e-05  1.5852903706564446e-05  1.3872182520208239e-03  1.8007514563125836e-03  1.6545614590441393e-05  4.4007563298368554e-04  2.1229275675255752e-05  1.3281934505278666e-03  1.9417767721224681e-05  9.9262810781275708e-05  1.7812247800329625e-05  1.5714816643024802e-05  1.0046954599083828e-04  1.1541390810267244e-03  3.4852281966195819e-04  1.0646124606072779e-04  2.5981537690141334e-05  1.8120988039163251e-05  1.3795962849975168e-03  7.1486720933484069e-04  1.2618038679488802e-03  1.5653372176390990e-03  1.2034546298908167e-03  9.9440870753515024e-05  2.4834286337014649e-05  2.2532701863456653e-05  2.0166392076101664e-05  1.8568212800022309e-05  2.4960254751060871e-04  2.1802665295287270e-04  1.0338395382309567e-04  6.7985464039197442e-05  5.3593641860714020e-05  3.4715494805477451e-04  3.5737596726323214e-05  1.4886484275813854e-03  1.9088812861371837e-03  1.8476699801271172e-05  9.5635808685586336e-04  5.3599762825848058e-04  1.7036065161325721e-03  1.8529415269123524e-03  2.1295633753845653e-04  2.5599284201828880e-05  3.3842355904450550e-03  1.9837159162101482e-03  4.8834048357691276e-04  1.7063291085750690e-05  1.0146571623418101e-04  1.2107093433781002e-04  1.1039788527866176e-04  8.1449657555764403e-04  2.2448884883759622e-05  2.1669058863333023e-05  2.0538475180920710e-05  1.1938594913745058e-03  1.6498162544436454e-04  1.0005661711185630e-04  9.8963591772429041e-05  6.3393834931146174e-05  3.1829132216585597e-05  2.8464881656525707e-05  4.9233251310411034e-05  1.2402084565596488e-03  1.2744374003898758e-03  1.0523805179597059e-04  7.8034026884709687e-05  1.0397242037701879e-04  1.0522749197996836e-04  2.6802259188569633e-05  1.1849387811392991e-04  1.8909038633684808e-05  1.8758402198550037e-05  1.3461646703581597e-04  8.0524655428379204e-05  1.0155232729302369e-04  1.3252817982964742e-05  1.3621503719117348e-05  9.9654619554968315e-05  1.0081310078130935e-04  1.0079205323752457e-04  1.5266866881026695e-05  1.5565837021796994e-05  1.4908288969212886e-05  -2.4116715151523905e-04  3.8848962197397569e-03  3.0580520974701207e-05  1.3744964856789697e-05  9.8691061125151579e-05  1.0102745421539103e-04  3.1592778027308058e-05  1.8859591508593632e-05  2.5298864295067526e-05  2.3873524065508186e-05  2.2980830707398554e-05  1.0207845486181948e-04  5.0395270220532102e-04  1.3660932004298562e-03  1.0224251823920463e-04  1.7027800382058036e-05  1.3807243690372401e-05  1.3737059911770817e-05  6.2162793460213649e-04  2.0341161587555343e-04  1.0303965286211955e-04  1.0298778666856843e-04  2.1094834164026558e-05  3.0244448528526505e-05  4.4794729526628627e-04  1.7929702936864058e-05  9.4248478458133366e-04  1.1025710178590778e-04  1.4257326059980915e-04  1.5511572063712838e-05  2.6169379473909018e-05  1.5637110778586770e-05  1.2586287602439286e-04  1.0847755942599754e-04  1.3979796674911614e-05  1.1072376572219934e-04  1.6276611087203335e-04  1.7464480427798054e-04  8.4337221063078419e-04  1.6875111621471330e-05  9.9387102578729733e-05  1.0627013250618572e-04  1.0727012236576351e-04  1.4516300837763673e-05  1.5725984672711894e-05  2.0344843351978088e-03  1.9403634622150312e-05  2.0096698405630205e-05  1.3790794542981862e-03  1.8108306629772419e-05  1.7058473757543332e-05  9.3012796947029137e-04  2.1968553332301477e-04  9.8984261436216601e-05  1.3039797413569609e-03  3.2497231967375630e-04  2.9495060944266715e-03  1.9092850729465034e-03  1.9774642493078228e-05  1.0474559165230569e-04  1.0828122920286203e-04  1.4245225038367993e-05  1.3960406241119717e-05  1.0200748765463316e-04  9.8474006433267973e-05  9.7222603788811905e-04  7.5379874183748784e-05  1.9097514938392969e-05  2.2108386580677347e-05  1.2094479681309452e-03  2.0691241882152768e-05  1.2223233122383391e-03  1.0187333386617851e-04  1.0432404495181805e-04  9.7932979191177501e-04  1.0615463469083586e-04  2.2643652976428797e-05  1.1204536158440556e-03  1.5577448088622168e-03  1.3562085695207969e-03  1.2957369147750770e-04  1.2089958367479703e-04  1.8312659582791714e-03  2.1579281584960987e-04  1.3809759631454412e-03  7.2663073519410538e-04  1.7391301258026944e-05  5.9564319164814622e-04  2.3112775881672926e-04  8.6332816723834818e-04  1.1539359700518166e-04  1.0212482439421961e-04  1.4921363141966628e-05  2.2973030834052484e-04  2.3094085188667646e-05  2.7893709864116668e-05  1.0046818779296031e-04  1.1109403932019367e-04  1.6277093657113266e-03  5.4814918647800583e-04  9.8864336760167261e-04  1.9640164763667762e-05  3.1655348969195230e-05  1.3233594859692539e-03  1.1159565675623077e-04  1.0958764303371995e-04  1.7837869463073460e-05  1.6487021297567561e-05  1.6417217817766118e-03  1.6707908287144354e-05  1.9425558308349946e-04  1.0598406254775606e-04  2.1517686493325878e-03  1.3416422569464605e-05  2.3847998355652896e-05  2.5429662169436491e-05  4.7817403464037414e-05  1.5115652945330145e-05  1.0448971370019825e-04  1.0553767174864204e-04  6.0435690863382703e-05  2.8505829960028864e-03  3.4626459001084128e-04  9.8026420516075357e-05  1.6401462388214712e-03  7.0674199873767957e-04  9.0905154903333011e-04  3.7138373695006345e-04  1.1193512558144272e-04  1.0859668823282093e-04  1.0337205332388026e-04  7.3081396569585268e-04  1.4030937428716893e-03  1.2713648975051265e-03  2.7216364860631408e-05  1.5715129217935904e-03  9.8963966427938118e-05  9.9826832119878335e-05  1.6268451241792071e-05  2.3037069245298104e-05  1.0224422996019460e-04  2.1498710426241692e-05  5.9078351040085071e-04  2.7024059136954557e-05  1.4545653349734607e-05  1.0403485923695431e-04  7.0863230836319506e-04  1.8079546330030516e-05  1.2285899192606504e-03  2.2915660797434606e-03  1.2807464486194169e-03  2.2020322619242464e-05  2.5372481508386294e-05  1.4347641212259059e-05  7.6414340338612366e-04  1.0888016447452119e-04  1.7766164904714355e-04  1.9138498852716671e-04  1.5111695073489760e-05  9.8402046805384652e-05  5.0063569059633696e-05  1.6138523435833823e-03  1.7136998516317095e-03  1.1104643282922220e-04  1.4028593856826833e-03  2.0666566031962432e-05  1.0757167343905298e-04  1.5515292460088024e-05  1.6029750905333114e-05  1.0689642321272467e-04  1.0013706650809236e-04  2.4871987640484263e-04  2.0604927269948184e-05  3.3513072315168691e-04  1.6910477902659495e-05  2.6578696763852786e-05  2.9344658267593570e-05  2.3856958781576268e-05  2.2468591465272527e-05  2.2381125791696590e-05  8.0908361475305938e-04  4.1438882628185898e-04  1.4696788071164137e-03  2.9083268255526671e-05  9.7950334059795514e-05  1.2507122634144660e-03  1.2643297297475087e-03  9.9787483283844501e-05  1.6679560066792216e-04  1.6254748422021156e-04  4.9773613001619557e-05  2.4444358517194975e-05  6.1503739926371435e-04  1.0102043035417583e-04  1.1357184224081748e-04  2.1432499186280867e-05  8.0314405794652211e-05  2.3003108579103489e-05  1.2956546935078505e-05  1.6087106532944111e-05  1.9838988567013336e-05  1.2019587038670514e-03  1.0267248107866624e-04  9.2517037899486360e-04  1.6952040595961739e-05  3.0560005101750462e-05  7.3181426579113792e-04  2.9441166615534539e-05  1.2701665272097886e-05  1.3450369329677576e-05  9.9126803304402570e-05  2.5421044712825886e-05  1.0332645152985087e-04  1.0361519258964627e-04  1.9028331727479756e-05  1.1008890311030208e-03  2.5122318826782928e-05  1.9418675226402931e-04  2.5647381465591378e-05  1.8188393159747414e-04  1.7871792586616522e-05  1.0346776582073689e-04  1.0221307793036020e-04  9.8599835009405244e-05  9.8756981491359636e-05  2.4254075508114090e-05  2.6416910316511416e-05  5.8247790237085293e-04  1.4482123231658987e-05  1.0063484883056012e-04  1.0338687378382871e-04  2.0853335331099763e-05  1.9041722562587741e-05  3.1632660107171185e-04  1.0158260079212811e-04  1.9231910729557944e-04  1.5970658019742913e-05  2.3185585141395782e-05  1.2891989563423190e-05  1.6652480601183425e-05  1.6544660178638949e-05  1.7635670439122072e-05  3.7414061538241521e-05  1.1240172202215197e-04  2.1882656867051666e-05  1.2960106993475746e-05  1.0354894666820898e-04  1.5676813083387095e-05  1.0886433125583452e-04  1.1313563621433563e-04  2.1145909420635648e-05  5.0952172117869963e-04  3.3719225272794637e-04  5.3112456085524012e-05  3.5278854905190120e-04  7.0654425444290916e-04  2.9195007873575887e-05  3.1615246592303321e-05  1.4125910814240026e-05  1.0039323444257240e-04  1.1688199321515070e-04  2.5733138173703537e-05  3.5776337451542885e-04  1.0001227093917170e-04  1.4497936476664260e-05  3.4863653276599168e-04  3.5405264734216500e-03  5.7718273676432433e-04  1.9259051364467342e-04  1.3279957424641658e-05  4.3000960113166183e-04  1.1050461458692304e-04  1.3476014193383432e-05  9.9207977252829035e-05  2.0675621665781801e-05  1.9607084243570569e-05  2.8429639289452601e-04  7.1036525262266185e-04  1.3869704999833375e-03  8.1325529290492235e-04  1.8427977048945845e-04  1.2450434873389983e-04  1.0569072822133233e-04  1.0358660008124786e-03  1.5492332677734011e-05  1.3551280590508860e-05  1.0538346837060431e-04  1.4618849456333846e-03  2.8232437569770802e-05  2.0750901410514661e-05  5.5543500690146244e-05  1.3816599400747105e-03  1.1022870967671082e-04  1.4122845231530698e-04  1.4293036477083161e-03  1.0747745275959921e-04  2.0710752110319954e-04  2.4548646998135622e-05  1.6266424906820483e-05  1.8253268019026707e-05  2.5807256884392107e-05  1.0699435521064031e-04  2.6779853601921537e-05  2.8029078366378063e-05  2.7427745208931049e-05  1.2605488341086999e-04  2.6490911312900087e-05  1.3854338792513288e-05  1.3121864770089181e-05  1.6703809229049469e-03  8.8234637010121530e-04  1.1099268182614558e-04  1.0643330500339974e-04  6.5086644952167521e-03  1.1175024153438275e-03  1.5086802251589046e-05  2.5009382220294278e-05  2.8419342467718228e-04  1.4697946181066911e-05  4.5728793431788084e-04  4.3655456523027716e-04  1.3057410094496490e-03  9.5127166697924316e-05  3.8026428349822246e-04  2.1870598329604835e-05  1.0994952240888643e-04  1.0048077998650557e-04  3.1903980518149004e-05  3.3798598008512559e-05  7.3192920164538873e-04  2.2037605621547163e-05  8.9906440113179508e-04  3.1935176768634938e-05  1.0080829728361949e-04  1.3165381646778006e-05  6.2114245814269401e-04  1.4995593002542465e-03  2.0059367003835788e-05  6.7190357240407394e-05  1.4828665212411032e-04  2.4635923980032026e-05  6.6994521373467994e-04  3.0123234481782945e-05  1.4622452843176684e-05  1.6292957702603347e-05  2.5135968079788847e-05  1.6304889084412105e-05  3.1801502288089697e-03  1.0449891094581894e-04  1.0108713661813081e-04  1.0194618041502137e-04  1.1164879712862759e-04  1.2844022712390130e-03  1.8734901559436708e-05  9.8473933533387232e-04  1.7765963095605186e-03  1.0065910676743206e-03  4.2888491586655849e-05  1.4914013700678858e-05  1.4175303727871100e-05  1.0085381878533041e-04  1.0781260552211176e-04  1.0687051630104041e-04  1.4962806432841144e-05  2.3366794262879706e-05  1.2576040022041087e-03  9.8355103236946447e-05  1.0897764262430959e-03  9.8383268339187387e-05  9.7901109267298616e-05  9.9722786963514298e-05  1.0473326955395754e-04  9.8325184269645798e-05  1.5094444055137568e-05  1.7931135812611945e-05  1.9279781278551731e-05  1.3360558665523364e-05  1.3662998238178266e-05  1.3844913787794445e-05  1.0932926231447628e-04  1.0827336970097519e-04  1.0725457464327806e-04  9.8636354284078090e-05  1.1212020251208637e-04  2.5984260200086257e-05  1.6898406271061430e-05  1.0217139921092543e-04  9.7813097327446036e-05  3.0883799208643312e-05  9.9412970357742417e-05  1.2742376584670819e-05  2.8658650950962372e-05  2.0573040806547256e-05  3.5130955074196125e-05  9.4195848290277596e-05  3.6654950370526779e-04  4.5533492029682280e-04  8.2144052152869718e-04  1.0998135687088257e-03  1.0588315916609020e-04  1.0948613086161479e-04  1.1188447222338178e-04  2.1254081251218668e-05  1.7390006183456999e-04  1.2686507731523847e-05  1.8035647011834991e-05  1.1225376287818216e-04  3.4556608214974204e-04  9.8832781725721825e-05  2.1524434098557863e-05  1.0005950811094152e-04  5.1668877335590813e-04  2.7023026299135265e-03  1.4662187776935333e-03  6.3161117029350729e-05  2.9241699283465541e-05  1.9949132409688201e-03  1.0198955164352707e-04  1.0187347216967234e-04  7.0562277460760455e-04  2.4604639575602430e-05  1.0186684505665161e-04  1.0623449315048915e-04  1.0540977919170150e-04  1.0501539557240226e-04  1.0720626962890556e-04  1.1338799305834368e-04  6.7873708013244799e-04  1.5398083665704773e-05  1.3618136363259242e-03  1.0782765261463346e-04  1.6148161407283954e-05  2.4428655502402460e-03  1.4384296534921460e-05  1.0575488677769047e-04  1.0598500415186884e-04  1.7008302334604061e-03  1.3833394886511650e-04  1.4213432983545993e-03  1.0266787912118419e-04  2.1685561011108483e-05  1.6107661210733491e-03  1.9210715696116908e-03  1.7311236727963120e-05  1.4756362038467967e-05  1.2595563559028593e-03  1.5927411926492955e-05  1.5139032378956819e-05  2.5831040292802437e-04  2.2138099643210584e-05  1.0080441781089183e-04  5.5987636666129767e-05  1.2093445168751208e-04  2.7000084856228461e-05  1.0467366352738534e-04  1.0424078033012324e-04  5.9235377527308921e-04  3.1249127629313088e-05  2.1743435458533278e-05  2.5159263537067790e-05  1.8910555622901191e-05  1.0103025804213426e-04  1.0669363367419110e-04  1.4226253088541081e-04  1.0391892364324806e-04  2.4263354830271690e-05  1.0313033706216149e-04  1.0277739799731708e-04  1.2762725300630463e-04  3.1350967828027759e-05  1.8660655450423203e-05  1.7999091483655461e-05  1.0140628508984917e-04  1.3218166731486766e-04  1.0535132485517957e-04  1.0508326889114092e-04  1.0432197229602712e-04  4.1898277850894344e-04  1.5320298416521402e-05  1.0105858479081788e-04  1.0299379889762470e-04  1.0039225670999305e-04  1.0055308651440488e-04  9.9976593451133375e-05  2.9598285852236363e-04  5.9633157430748424e-04  2.1309117231958349e-05  2.0951670110988993e-05  1.3652163257703718e-05  1.6535663840145591e-05  2.4089931610930620e-04  1.3781834269252282e-04  1.0800953569700012e-04  2.1545546471975319e-04  1.6515953893363441e-05  6.1974166484473248e-04  2.2227201256736563e-05  5.4491091285427428e-04  1.3379846205377386e-03  1.7368933756423732e-05  1.1970851953497894e-03  1.3443984863743929e-03  1.0877724029162478e-04  1.5997821227330757e-05  9.8407035667611830e-05  1.0635826443933858e-04  1.5679905297674396e-03  4.9318380310225192e-04  1.0756165599707731e-04  1.2127177218435995e-03  1.4105079472589838e-03  1.0346026186110210e-04  1.4134440979102257e-05  2.3666871806296950e-05  8.6700535319422995e-04  1.0746844463198135e-04  1.0720707274054376e-04  9.9820750315981685e-05  9.8760500820677501e-05  1.7055663307113065e-05  9.8381652234783034e-05  1.7192766630174636e-05  1.4097261889340864e-05  1.2955365484295625e-03  1.0108235299317525e-04  2.0045573822408689e-05  1.1394973052812909e-03  1.5910058089480937e-05  7.4077934067877371e-04  9.9571793309779100e-05  1.0012946379721934e-04  1.0074484199858400e-04  9.9444085975310671e-05  5.7487689341