<?xml version="1.0"?>
<VTKFile type="UnstructuredGrid"  version="0.1"  >
<UnstructuredGrid>
<Piece  NumberOfPoints="6486" NumberOfCells="12696">
<Points>
<DataArray  type="Float64"  NumberOfComponents="3"  format="ascii">0 5 0  0 0 0  5 0 0  5 5 0  2.5 0 0  5 2.5 0  2.5 5 0  0 2.5 0  2.5 2.5 0  0 1.25 0  1.25 0 0  1.25 5 0  0 3.75 0  5 1.25 0  3.75 0 0  5 3.75 0  3.75 5 0  3.541666666666667 1.458333333333333 0  1.458333333333333 3.541666666666667 0  1.875 1.25 0  3.75 3.125 0  1.284722222222222 2.326388888888889 0  2.683189655172414 3.767959770114943 0  0.9375 0.9375 0  4.0625 4.0625 0  0.7252209595959597 3.026357323232324 0  2.763480392156863 0.9129901960784315 0  1.875 4.345238095238095 0  4.345238095238095 1.875 0  4.192708333333333 0.8072916666666664 0  0.8072916666666665 4.192708333333334 0  3.368055555555555 2.326388888888889 0  0.6837606837606839 1.738782051282051 0  3.285485245626782 4.324328415208927 0  2.551239698778062 1.693130150610969 0  1.827256944444444 2.868923611111111 0  3.464875022477093 0.6813924607921316 0  1.942880513719175 2.059558626187995 0  3.04563492063492 2.971230158730159 0  4.375 3.4375 0  2.13639445139758 0.5994472256987903 0  4.272228422619047 2.606956845238095 0  0.625 0 0  0 0.625 0  5 4.375 0  4.375 5 0  0.6400043240752655 2.384646170113389 0  1.347691225855598 1.660875475110776 0  3.515783617857982 3.723905460714006 0  3.125 0 0  1.875 0 0  0.625 5 0  4.375 0 0  5 1.875 0  0 1.875 0  0 3.125 0  1.875 5 0  5 0.625 0  0 4.375 0  3.125 5 0  5 3.125 0  1.489644181965304 0.6007147273217681 0  2.054597701149425 3.742302955665024 0  2.662520990197781 4.39452575763237 0  2.415835363784578 3.165530021913244 0  0.8679986894865213 3.602373689486522 0  1.267459753787878 2.886186079545454 0  4.099702380952381 1.365327380952381 0  1.316964285714286 4.438244047619047 0  3.7915135293491 1.959691594758709 0  2.875141124191255 2.118761176511833 0  3.00418010501169 1.397414179299248 0  0.4081721322167092 3.410647930198662 0  0.4166666666666666 0.9375 0  1.014190407998288 0.4422301359994293 0  1.383260571305984 1.162718286082048 0  4.53125 3.90625 0  4.453125 4.453125 0  3.772848162504192 4.48678272083473 0  2.8125 0.404329517041716 0  0.4538690476190476 0.4538690476190476 0  2.305461739347387 1.04517007574828 0  3.771263799175824 2.624190260297553 0  3.229617768018734 1.809956994202883 0  3.780190884441317 1.025307111692601 0  4.646337365591398 0.9375 0  4.537623451379149 0.4609485750426037 0  1.200477888421151 3.934852888421152 0  0.3536626344086022 4.0625 0  0.4623765486208503 4.539051424957397 0  4.0625 0.353662634408602 0  4.560525106689535 1.390989100915847 0  3.958439078571988 3.619844539285994 0  4.672619047619047 2.1875 0  2.1875 4.672619047619047 0  1.862808494877602 3.325947624431087 0  0.3268135998175443 2.8125 0  4.674181280189791 2.8125 0  2.283233994935276 4.138623547175983 0  0.9375 4.677879119362977 0  3.08488061581743 3.469889594488945 0  3.113427375573758 3.913955730709506 0  1.652847799068813 3.950848935641292 0  2.932652662909449 2.550542739521724 0  3.311350648514189 1.088831994878698 0  0.6770833333333333 1.295851139601139 0  0 1.5625 0  1.047214787840024 1.96818092308125 0  4.183331482095785 3.03958703580843 0  3.4375 5 0  1.071307777252521 3.246275861010018 0  0 2.1875 0  0.386576856303419 2.03125 0  1.713862716483534 2.439783116849799 0  1.775396256975935 1.665976816304977 0  2.231236976948428 1.443917394671254 0  2.373900732409897 2.086930260150635 0  4.114918237574474 2.221646174618671 0  3.661302567757379 4.099620139144836 0  3.378215938602977 2.734494874063393 0  0.9842097536079312 2.597286741306247 0  1.642795138888889 4.672619047619047 0  4.0625 5 0  2.099458800960004 2.567446522665629 0  2.616202751603346 1.297895893940078 0  5 4.6875 0  0.9937554350075428 1.512592975947215 0  2.8125 5 0  3.002695327068194 4.614055254615477 0  3.205627424097207 0.3852436382721472 0  1.678616581261621 0.927556612265266 0  3.365326698305438 3.196943731162083 0  1.554834936170314 3.120009882655813 0  3.108408340729323 0.7797187795784133 0  3.684368918102174 0.3728877601163941 0  2.716214835303553 3.39276351922003 0  2.37718583984784 3.551973401560441 0  0.3750662445374837 1.52191994866787 0  2.679073487930202 2.844160731602957 0  1.557635869750078 1.991068682985722 0  1.812595698561088 0.3839273018252746 0  2.512014721281916 0.6320641118792227 0  2.1875 0 0  2.349973454443689 0.3189980586887866 0  4.6875 3.59375 0  4.636052949022233 3.178355898044465 0  4.6875 5 0  3.345485909784306 4.665765449101383 0  0.536727472389443 3.749603193819277 0  4.349541499640203 1.116201826262156 0  2.886559045931982 1.774013674579691 0  0.6770833333333334 0.7142857142857143 0  1.5625 0 0  4.120842096538671 4.628726497527622 0  2.176157474177018 1.793470423744689 0  2.175650736889416 2.909863021769539 0  4.036616464259081 1.709699085170981 0  3.887974623473683 0.6492597046022868 0  3.4375 0 0  3.70675699592552 2.289666624772415 0  4.697265625 4.208984375 0  2.815177577303495 4.085937578239174 0  4.672619047619047 1.730733296184288 0  4.6875 0 0  5 0.3125 0  0.3125 5 0  0 4.6875 0  0.3276089296588581 2.484526834811734 0  0.712433309515852 2.065138854645612 0  0.6376435912223634 2.711473454001295 0  1.184991292170422 0.7222504400947201 0  1.31884329779317 0.3206944232264773 0  3.683609198994263 3.44428698533042 0  0.3125 0 0  0 0.3125 0  4.231797269642997 3.789141808928991 0  1.564375596050781 1.425998687184973 0  2.007640894175573 0.9032106925568466 0  0.955125897558294 2.276666098587227 0  1.43898735721003 2.611310720271951 0  1.954491523717513 4.040700257877075 0  1.752947649777421 3.652439445419346 0  2.509575750247638 4.678021307664052 0  4.687194709705067 2.499965519538002 0  1.5625 5 0  0.9375 5 0  5 2.8125 0  2.1875 5 0  5 1.5625 0  5 2.1875 0  4.0625 0 0  5 0.9375 0  2.8125 0 0  0.9375 0 0  0 0.9375 0  0 2.8125 0  0 3.4375 0  0 4.0625 0  5 3.4375 0  5 4.0625 0  4.010848109290813 3.306446973933037 0  0.3077461147713075 3.119700563473354 0  4.6796875 4.6796875 0  2.333079012424948 3.845757959077508 0  0.7829771267899832 3.317744656243421 0  1.159100632608513 3.532487125138763 0  0.799066251840424 3.893573750162776 0  1.57326499580282 4.255438189102632 0  0.7309366047093668 0.2991402264438908 0  0.3054777494262156 1.223275888123843 0  4.027475154280377 2.78211326942427 0  2.35270874745988 4.426658168476266 0  3.474236283732569 2.021154281686229 0  4.401414236174444 2.329446628171927 0  3.39403781747337 3.987097102903034 0  1.077524329801934 1.214100792470484 0  4.065611571711903 1.066085524514197 0  2.165399002716117 3.335637450367864 0  3.007639563081306 1.093684039371638 0  4.030818285732145 4.351883315180857 0  3.504115222530889 1.739284194222036 0  1.224503368215566 4.712091441401919 0  3.805634204685714 1.321528442399996 0  4.319233123479386 1.573547993867769 0  1.024007670021325 4.394604704797005 0  3.776400432023095 3.839003324979723 0  2.991819819453308 4.320567175146181 0  0.9782797534072181 2.886406017887129 0  1.763835134082104 0.6602345487826022 0  3.765182288741625 1.631193038541544 0  2.267959593989681 2.345053543725764 0  4.412434895833333 4.168294270833333 0  4.4072265625 4.7255859375 0  2.791493971314009 3.11210833271929 0  3.408766223032414 3.469500900677365 0  1.915147569444444 4.725484476461039 0  2.070301968506271 0.2605666686358055 0  2.767932250651506 1.530295992695836 0  3.280065043173439 1.364863281105779 0  4.45101570110842 2.974157152713635 0  3.521928862999512 2.96990445010402 0  2.552921961347576 4.008414007169315 0  0.2682955376854191 3.657555015841003 0  3.084522868361304 2.310593316718068 0  2.669255823227708 1.939379494498064 0  2.615884629473921 2.238841231570381 0  1.405652091971449 0.8877813821442277 0  3.25151486618811 3.68536115104276 0  1.963741569810629 2.331207252264507 0  4.017297980292599 2.486269171379106 0  3.869168920841219 4.748188103831625 0  3.596868753579134 4.77342723825056 0  2.41262958240343 2.764128584995838 0  1.266750578673391 1.404747710001619 0  1.559243962241121 2.85146506328516 0  3.128799423834764 2.052081657715259 0  0.6770833333333333 0.9778025793650794 0  0.2083333333333333 0.78125 0  1.978224492765132 3.087074731032578 0  4.051448850909273 1.969392119104174 0  1.320577095006813 4.172234780971559 0  3.214261103850064 2.534397293281829 0  0.2635729089754111 1.779234736680035 0  3.510775680035133 4.460728640112889 0  2.603081405968802 0.2432579385496493 0  2.866341315154884 0.6662105505481998 0  3.000919221100777 0.2270278495648781 0  1.298858304121393 2.05917319923859 0  2.020292299736597 1.589794568392338 0  0.7401688396476035 4.470780315741533 0  0.6721783535561408 4.733125588707921 0  3.753712482075402 2.874301339727514 0  3.557348205914658 2.491958694539413 0  1.094565978195436 0.2011034254079851 0  0.9338148378011396 0.6833568465908735 0  2.945530578578538 3.701798332963805 0  3.111707186654356 3.216904195825605 0  1.341791111822685 3.293123262233967 0  1.632939924064587 1.184895891095613 0  0.6335477978936732 3.517393619499591 0  0.5576014611130192 3.210998966942492 0  1.564344196470102 0.3630498725895039 0  2.75362450242839 4.626680495816594 0  3.571304405229554 1.192452351107437 0  3.522934592621944 0.9359134489437148 0  4.453125 3.671875 0  4.765625 3.828125 0  1.055906321410838 4.14310472322957 0  4.795146539102229 0.46875 0  4.767156345199235 0.7178596932040019 0  0.2048534608977711 4.53125 0  0.232843654800765 4.282140306795998 0  0.5393715189906129 4.270810883024032 0  4.329922600274667 0.2750645887059072 0  4.275515096738972 0.5448389557295173 0  4.477747423652795 0.7252838358993123 0  0.2002829820452772 0.46875 0  0.4352678571428572 0.6956845238095237 0  0.5007241582667088 0.2123388122114133 0  4.672890923830735 0.2500902110494848 0  0.4308009280819452 4.783624996516437 0  2.104871305393774 4.438653689007242 0  0.2274454167838428 0.2274454167838428 0  3.446466574593436 0.4359605369011901 0  2.12354112127588 1.217588426759619 0  2.309175236825235 0.7888355970690434 0  2.556178570281936 1.054299163237582 0  0.578683248637
[...]
<PointData  Scalars="f_16-1"> 
<DataArray  type="Float64"  Name="f_16-1"  format="ascii">5.4553819645375542e-56  1.2511737847765411e-04  1.5850839475516004e-54  1.7973015224035704e-80  -2.8163618528709795e-26  3.6888851773470384e-64  -7.5176433866095907e-64  -7.4002692213120345e-26  -7.3438201329987656e-37  -4.2377306275543070e-12  1.1863262575142243e-15  2.0397073488650847e-60  1.1108971801574438e-41  4.8695148400441041e-60  -3.9027880375092800e-40  6.8997289576629861e-72  3.7198646386344287e-70  4.0458323311093953e-44  -3.0341764921167362e-42  1.8889868888222254e-24  6.5357481304569999e-54  -2.7149069382306149e-28  -2.0009847491354681e-50  -5.1335694137498523e-14  2.6041204291116646e-66  -4.6067057995254582e-35  -4.6504213401975020e-33  2.1424772001057578e-52  -2.4496965192766250e-56  -4.5510990383581581e-49  2.6325167467737593e-49  -9.1459139667447448e-45  -2.2580215848319915e-17  -4.4758556690258019e-60  3.9930093285749953e-34  -4.0075344245128919e-35  -1.1946115531021780e-41  -1.7055547927743331e-29  2.8701327860686067e-46  1.8265358129588151e-62  -1.3114302901319355e-24  -6.4323399564391796e-58  7.1512162655704832e-09  7.6695992868193633e-06  -1.9023901913493142e-75  9.9704542888438362e-75  -3.2699016100388174e-26  8.3777431701756676e-22  -5.1169122103940408e-56  -1.8469078441177886e-32  8.5560652464607583e-21  8.7343961344704920e-58  -9.3760259555929287e-47  7.7886721439830495e-63  1.9031247908319367e-18  8.7462001811030049e-35  1.7723692886605060e-60  3.0886212152649038e-56  4.4623015828469120e-49  -2.7681233312097881e-66  -3.4729208303940903e-67  3.6884164294122733e-19  1.5820851526895705e-46  8.7732772944438577e-59  -4.0569178233204595e-42  -8.8628818704424956e-43  -5.9958043584506559e-34  5.6056336373194378e-51  1.0457827971486116e-52  1.6530544160283995e-49  1.9887620244230506e-39  -2.2193704867779435e-39  1.1291126702385013e-39  -4.8156764607422953e-08  -1.1832481026880017e-12  6.8624683432792560e-18  1.9021237435618753e-67  -6.6624318226439901e-71  -4.4644152235829645e-65  3.4353433590220153e-32  -4.1203570255857841e-06  -5.0836407909746199e-29  5.3482976557957042e-51  -2.6338281813325094e-41  -7.4751862467499304e-46  3.8346692180010399e-55  -1.4870209261332991e-51  -6.7006215007048783e-48  2.8848216841644990e-47  8.0111954183624096e-52  -5.3304047610889926e-45  5.9612900715950711e-57  5.2936881110733193e-61  4.8367058643554230e-60  4.6671479044709230e-58  -6.0330024819490440e-41  6.5500904631219217e-31  1.6986087261871961e-62  -1.5476629662858788e-52  -2.9221683116844037e-55  9.2705957284852912e-51  -5.4544877284701111e-56  -2.6669150160546690e-47  4.2491289355151464e-43  2.5487750384270382e-40  1.3423262483564749e-14  1.8282246295873956e-16  -2.4699522439550051e-21  -2.7916146712979199e-57  -1.8063778207819848e-69  -6.3144328785587000e-38  3.9873120252468538e-22  4.3642196457291315e-21  -4.5027632491370936e-29  -1.9865545934458344e-25  -1.0027736306541718e-28  3.7740632995974841e-33  -2.3739331335452215e-54  -4.0346673504791205e-60  1.5969711414180685e-47  -1.4141509447830532e-30  -2.0756370549588950e-56  7.8409264243592010e-72  -2.7517025937463600e-34  1.4479752354927942e-33  -2.2899571624654571e-78  2.6972856007621452e-17  -6.8777917175449730e-68  7.1941790884948279e-62  -1.2402841625028440e-35  1.7837132866454089e-20  1.0311609858346789e-50  -4.4818700293954365e-37  1.3721460804691847e-37  2.0486524847604247e-41  -2.8161547651856068e-46  -3.2766385726989196e-46  2.0118412290643058e-14  1.6251730225727611e-42  -8.1358738623827250e-25  -5.9996916090590650e-21  5.4709213341179377e-29  -9.0375735728401906e-24  1.0819018863392297e-26  -2.4549052398148242e-67  2.9130896662219668e-63  2.2856924066195816e-78  3.8286771246605017e-64  -3.3869454361706354e-44  1.0256839875974630e-52  -7.0947632973347158e-37  3.5460322907864681e-09  4.3125162792389339e-18  -8.7355259271453078e-69  3.9782189027695958e-30  -7.0652819801981890e-37  -2.9179197426945306e-51  2.7607131767723667e-45  -9.1712387403200572e-37  -2.4937340037690048e-48  1.1452036716099684e-73  4.8752475512726787e-54  1.1713987781972628e-58  1.5789645848127383e-50  -2.0041325742314525e-54  4.9716943741436973e-57  8.7695915489670208e-53  -7.1791916905744647e-27  -1.5034131304566666e-21  6.9299970739086542e-30  2.2027224591981816e-14  6.0127757061973546e-16  4.4849673028256081e-56  4.8522739188911775e-06  7.3661800369303381e-04  -1.0178225831104665e-63  -1.3158894228649627e-21  7.5168106070143027e-25  1.3339979965677720e-25  3.1474135036875942e-32  2.6965342515874790e-50  7.5205971171083194e-44  -5.6799181481281174e-60  -3.1649780964188481e-61  -2.8029839931366121e-58  2.2776341938647299e-59  3.2690291597559256e-66  5.0174212872630173e-62  2.1021052548846612e-61  -2.3827416125228853e-63  3.1181773666156123e-43  8.8426318091541716e-58  3.4365038204506242e-29  5.1164382187727261e-11  -6.2991293583808398e-09  6.5449824154101846e-31  1.1846506292325443e-37  1.7300270053405403e-45  1.9874311223511188e-67  -2.1555420597617670e-73  -2.2435592239582811e-58  5.7861208717653222e-35  -1.0625774416966744e-74  1.0129407686560611e-48  -3.4888525968407826e-39  2.3542297814518618e-42  -1.0006063327694535e-45  4.1527454951279491e-51  4.4555498344985410e-09  1.1927920723825662e-10  5.6327592461313587e-55  -1.5247549337043629e-56  -2.2934838148836262e-44  5.0877238633319975e-56  6.1114014556551913e-58  -1.2575252499614513e-15  3.3478676097160713e-49  -3.6810210960097163e-42  -7.3202292349502305e-37  6.3136394513529220e-66  -4.3889304585543384e-45  1.5971381537939907e-55  -3.9111818059268477e-47  2.6974471464356016e-54  1.8485853717588683e-51  5.0838886351413043e-59  -2.9531150462261407e-58  1.2908344831663380e-32  2.1326910808484412e-21  5.1479358897875011e-48  -7.9566487921011232e-34  4.7382056054779289e-69  -1.6686171216909853e-71  9.4331333080111738e-46  -7.9392141604313247e-54  -1.1825096596030643e-57  -5.0488426328365929e-24  -1.3258886600160586e-35  2.4537293131522779e-42  -3.9959176415117204e-62  3.7469799269316290e-52  -1.5883398503284344e-52  2.0374148989801598e-42  -4.6107513892525508e-42  -5.5381811674301262e-36  -2.2213273945679748e-37  3.3771932412650555e-17  -1.1158878820598170e-53  1.9098350984789899e-30  1.8142033369137911e-54  -6.6523771677604244e-68  1.4862770218775282e-66  -1.0356807456231305e-39  -8.9764175668253049e-18  8.8548174978707968e-35  -3.2839596339359726e-41  -3.0362366998302919e-10  5.8833557882396542e-07  9.5319158301725278e-39  -4.6685837094443865e-52  1.6663311755527620e-48  -1.0091918483790999e-44  8.2667738188091057e-18  -3.5668539655220410e-63  1.8587593189635023e-29  -4.0734452849345295e-34  1.4211734952785989e-33  6.8343625282534793e-25  1.1484184762385343e-27  1.8346249735431193e-52  1.5053627984001520e-55  -1.0343301378676813e-52  4.5914103100367879e-48  -6.2705886820497614e-13  -1.1654005571293665e-12  5.0593515723326004e-52  -1.1635676469362409e-48  -2.6486805835763423e-38  -1.9391909851267210e-20  2.6103978176533366e-41  -7.4304797621177668e-37  -2.2323278229369807e-18  -9.6823588192584617e-60  -9.7645862717636633e-44  -2.8665822421434221e-43  9.5233409903024622e-66  4.9510269307532718e-70  -1.2781933908142623e-48  1.6817232889846191e-53  -5.0332672606880255e-54  -2.1452589697392579e-51  -3.3827800586628643e-49  -8.7449725589544102e-51  -1.6494698816361024e-47  1.2493625452739416e-49  6.4076643559939606e-51  -3.0144994686464688e-04  3.7917791228305769e-06  -1.6411634414194942e-06  2.7491662591951128e-50  3.8585264471199053e-55  2.7187144693543926e-55  1.8372658679666938e-04  -6.2109150411854480e-40  5.6005317130061040e-27  3.6462245907646185e-27  -8.1857082375716737e-32  6.9759618811195397e-48  -3.5076109601305201e-48  -3.9374709745553090e-28  5.0457538595240768e-44  3.5331772369675299e-42  1.2498089287971751e-56  2.9180286030696590e-60  -5.1872280252878453e-73  1.8457833797450879e-15  -2.5859102377274163e-45  3.7316704806761703e-44  -3.0459151766221675e-39  -4.1635754618808554e-60  -8.3424851226089974e-46  -8.2729385730198403e-45  5.7297333706158371e-19  1.0943228599328113e-39  -2.0433615275842986e-43  7.3696766950867929e-53  -2.9989897394217537e-20  -5.5276803952223975e-58  -3.1124646409749134e-54  1.0830806873039386e-23  3.2618376422035366e-61  8.7064447991735481e-14  -4.0696648318478681e-30  8.0132176172981925e-61  2.6323145079126492e-62  -1.0692520891844822e-46  2.0015168239830892e-61  1.1880432463485161e-32  1.2864094820602344e-29  -1.6479641070869192e-64  3.4247272466859290e-59  9.5287410040135139e-28  1.3477631180417811e-36  7.7872366443466887e-42  -7.7702960219450644e-64  -1.0864191581469193e-39  -2.2200955959956970e-66  -6.3407386758880109e-58  -2.0174076758973886e-40  2.5683154075004409e-57  8.2007813566310727e-33  1.2711028880759397e-14  -8.9814619032215232e-13  -3.3538300849493237e-11  -6.0408403697389161e-40  -2.2916932782675939e-37  -2.4620904709368009e-25  -1.8934295679512341e-64  1.5977410682410186e-62  7.8021388224268130e-63  -9.5878442174223955e-55  -3.2170442390019770e-79  1.5958264259446058e-56  4.9658241623947582e-58  1.1212810136713115e-34  3.6473025783782539e-72  -4.9662805205048518e-37  1.7810012485489075e-59  7.6823569983533920e-49  2.8374329199195165e-48  -6.1031266235470325e-41  -1.1698412312708719e-32  2.4962596374027734e-11  -8.3897542747958743e-69  -3.9372477243525611e-48  6.9193385104913124e-33  -7.3910975065754300e-34  -2.8580348290955653e-63  4.2453967344193110e-22  1.5202638504494195e-23  -1.2320668048179531e-23  1.0401120635796305e-27  2.7024655289080220e-49  1.6184052876015669e-32  -1.0793059457270704e-44  -9.5539939576756619e-40  -3.1600304185960194e-50  -4.4372109151563790e-52  -1.4071787759241255e-58  9.2233835828722955e-38  -1.9097909821841543e-29  1.9263810820029326e-15  -4.4764376152950664e-54  -8.3532964141640582e-19  -1.2394988838467868e-26  1.3964319469936408e-65  1.5605747229772813e-43  9.3480398517093883e-40  2.3063153791327141e-63  2.0985952404103063e-34  -3.3080609026520302e-10  -3.0546884887178664e-20  3.2495312471878505e-51  -1.4026560215362460e-55  -2.2233641948289206e-42  6.1698694052945139e-55  2.0265267131731813e-63  7.1217031296225956e-36  9.7739370540024897e-20  1.1165727139896994e-52  -4.1543823247184909e-30  4.3201653245560970e-31  -2.6901932624550131e-31  -9.1364419848831034e-52  1.4906273582669029e-39  -5.3231921060713052e-35  -5.6442852518534639e-51  5.8772659903514037e-15  -2.2695986714256026e-24  4.7053461761757087e-59  7.0918203571443283e-36  2.3407506075771789e-53  -1.9616285410981483e-58  -4.1658247590487630e-61  5.0539129173937109e-32  2.8772893850715747e-27  1.4169998870381596e-43  5.9306444836598129e-53  3.5427268719108466e-60  2.6195885025266426e-63  -4.4010692972088667e-17  -2.7961921784536057e-39  -4.4066487241924501e-58  -4.9199940003278374e-54  -1.6114266465514728e-46  -1.3110339235679973e-28  -2.4403957294368909e-47  -5.2755464197276258e-31  -1.2871868011858023e-55  5.0861999695019671e-21  -4.6896863835189733e-55  -8.8135916912696242e-41  -4.7251270688935890e-32  4.3382712408927030e-43  2.6902281684058589e-76  9.5336932852157645e-24  -1.4071583076524184e-51  3.4178700922563211e-36  -2.9611114947304631e-22  -3.1930055543887943e-49  2.0012931950843949e-43  -1.0014655348693222e-23  -4.6964666669776739e-59  3.2498406260649174e-69  4.1245117937537018e-57  3.2901201370774831e-60  -2.2164831438411482e-26  3.1806385190775546e-16  4.0308911061875525e-37  -6.4183179069318775e-17  -3.3159749935507878e-50  9.2000026378693515e-39  -8.5400799183041343e-28  5.7415042607513412e-45  1.0531037280673356e-45  -1.9152899047863083e-32  2.1250274566574064e-55  -6.7900389813665207e-21  -1.3312910048390329e-38  8.0131385007237199e-13  -4.5624481072692633e-43  -2.2056776862903536e-19  -6.2026462537376471e-23  2.0443266697864294e-26  -1.1434407216478497e-32  -2.4860615412382603e-30  -3.0581760097187719e-47  1.1068092218040762e-49  -6.9865976103426494e-45  -1.2675793437588829e-10  1.0800279386027662e-59  5.6979174531075558e-67  -9.2900756426154156e-70  6.2929854970047271e-54  -9.7217055906172072e-28  -3.5655013097661584e-67  -2.6981844147339556e-19  3.2216210521858772e-24  -2.9182406057759028e-29  6.2315573851928748e-50  5.2264580710867847e-37  1.3500986449433303e-34  -7.3403151406796008e-61  3.7291120333788824e-40  -3.8138900758193841e-62  4.1273800927405693e-62  -1.7429827469178732e-51  -1.9470895013471873e-63  2.7294215370012401e-44  -1.3797841632688555e-67  4.6153181122864596e-48  -8.1285055915210905e-44  9.3144701708764890e-36  -1.6821852947944863e-09  -3.2671518144406641e-58  -4.1621690203404829e-56  9.6904357635963720e-59  -4.0411923819686104e-22  -5.4238632410450822e-44  -1.1037141506438157e-42  -1.0492459675554654e-46  -4.7417450040958107e-71  9.7639026289690487e-24  -5.0348333939562946e-54  -6.1344778315853088e-25  -8.4561957430466158e-23  3.3121471591733264e-52  7.7332567010053626e-40  -9.3973043726541781e-47  -2.2571156264799086e-58  -2.7549545630518953e-58  -5.4410462073279991e-26  -5.0064209203162050e-20  -2.4332965208258052e-38  -2.1336544439817893e-57  -3.3995295358805027e-52  -1.7531739360761721e-44  -2.0476883871801045e-46  -1.5788092175209981e-47  4.4519642745596349e-58  6.2668891140231307e-45  -5.5601119801015811e-64  1.7204505823373114e-51  4.3921104546198629e-28  5.1924736232735261e-60  6.8421558151952598e-54  6.8466472367030529e-51  -2.8913739212630075e-50  -1.2342628827603660e-68  -1.1787581025684256e-68  -1.1391324526177380e-65  -5.8292756303030117e-54  -3.4995187638087555e-54  -2.6206316161902620e-49  1.1490273092317686e-23  2.4965995199154020e-24  -7.4358228739117465e-43  3.3412699250546700e-62  5.5202745391130733e-67  3.1767819781555029e-47  -1.4076015344099171e-72  -1.0068838278031109e-70  -3.2971751117532589e-35  1.5455274048244939e-37  -2.8697191279316757e-52  8.9154056867832296e-51  2.3347407540645464e-42  -1.2590940654248619e-22  -3.4231360067310866e-58  -2.9835483725065344e-56  2.3847843084322191e-50  2.6827182939385847e-08  -2.0248576594669707e-08  -1.3561312521781299e-10  8.3787302829635562e-48  -1.6086589362987007e-52  5.7418220734315881e-52  3.8487483633427048e-17  -2.4808994014207705e-59  -3.2930990250400201e-53  -9.2343542299197727e-35  -2.6244655241937830e-42  1.5858353471472693e-55  -1.8518574243205027e-76  1.2506704729416011e-46  2.4661180067939099e-65  1.0061164381317585e-71  9.6199350379286832e-16  2.9635509124967288e-33  2.6342547345300798e-45  1.3657000306612349e-59  2.3173896347227886e-61  2.2577984779591068e-42  2.6092703922891576e-56  1.2893081907023101e-13  1.1550387559342341e-40  1.5707983219231626e-72  -6.0753292991174017e-39  1.8799024408492444e-21  7.0442460856289058e-32  -5.8837000200877291e-53  1.4518147550822192e-29  5.4380375351656508e-35  -5.2697745396603789e-28  1.2995239220799326e-59  -2.5732381539811362e-48  1.1123816409007191e-08  -4.4865592780781552e-30  -1.3974734707123086e-16  4.0680015679876351e-15  -2.9549173620264664e-17  1.4327388423537995e-12  1.9572033543987051e-12  -2.1635679671145216e-61  2.0732407080746493e-63  -3.4675274370827392e-41  6.4348884321393386e-38  -2.2113784530171051e-37  -5.2192528846336119e-33  4.0138715849547758e-05  1.9002846071133148e-56  -2.0220008387442881e-59  -9.4683800328944658e-23  -1.7595339904154121e-65  -8.1795595443987997e-54  -5.1958784432807334e-68  -1.4979330007747820e-51  1.2254591303243261e-67  5.7291986644493444e-29  1.5841525734380298e-61  3.8224626663102037e-38  -7.5347198034975951e-59  -1.8187561534921628e-58  -7.9097146108223954e-07  3.9825510627768235e-02  1.8187722601412919e-64  7.3192198350211307e-28  -3.3128533278417869e-73  -9.1994633018103425e-04  2.2145739279094957e-47  -1.8338622505293789e-55  -1.3316453412367506e-19  -8.6026804436230698e-21  -4.7367917217404274e-44  1.6501984517157063e-58  -2.2827320585698678e-39  6.2089533102770089e-26  -5.3825516176228397e-72  9.6645177082003003e-08  -7.0531590821315183e-48  -1.9020510170251475e-48  -1.0991843152647331e-22  -6.1427126919303609e-57  -4.0249132184986967e-12  -9.8038484747929791e-39  -4.5308046764222421e-52  -9.2858438509442545e-50  -8.4861999022933748e-47  1.1432714943319433e-63  1.0532360821419641e-38  6.8115864225342253e-48  5.3540851913521616e-32  -1.3417968531149177e-49  1.0734562794916611e-55  2.8855215380128731e-61  2.3097446272735868e-62  1.8122189847669445e-48  -3.3106572451919509e-28  8.4703385776586611e-63  1.6953402487133127e-64  -7.4610923600844040e-25  5.6182908488049697e-75  1.8731476797365403e-59  -5.7390859416922279e-73  -1.7875484961053611e-54  -1.1714555442963876e-57  1.1714857445726559e-63  8.7593386257788206e-37  -3.8808525993812144e-60  -2.1260109363652762e-68  -1.4159256885877918e-37  1.0368924784925920e-34  1.3114278316623041e-63  1.3346042508648154e-64  8.0934726134556228e-67  8.0721469669781276e-21  -6.5363919865384494e-24  2.5670039526202912e-28  1.8023774186089007e-63  1.0454874122814421e-14  2.4921575660532005e-19  1.4739381253717419e-41  -1.0513766061662945e-42  1.0191756692332436e-57  -3.6052781676676170e-08  -3.5400989402868462e-51  -3.5712503429113104e-55  -1.4645846147515144e-12  2.0332372236112126e-31  6.5580412566432547e-05  -5.0462601609693693e-07  -1.7609467872289181e-69  -3.0186418713962535e-76  -1.0744688890812952e-80  -7.3334409588197148e-79  1.5505664796814214e-32  3.9730432658996277e-65  -1.1598369598904793e-12  -5.6268585309374774e-70  -2.1499799322524668e-75  6.1250476703804936e-57  1.1963849011767921e-46  -5.2711973730977287e-57  1.4178552945937162e-40  -1.7527794590659356e-57  7.8757741723338479e-37  7.7134855730580709e-62  -3.2788437483393927e-16  1.4720154046381087e-15  1.8912626175422429e-13  -5.4653507212289267e-65  2.0869653642093363e-10  3.2327264648528675e-24  -6.1229685405969195e-12  7.1482462027233755e-48  4.7960666535647072e-31  -1.3985939060990205e-28  -7.1799191820373612e-51  6.9883361685069321e-33  4.8188293800329645e-35  -1.4915241036127931e-37  3.2469588755432276e-29  1.0531248677912232e-13  2.7885929891542548e-10  8.7854481427435468e-59  -1.3504460173844717e-53  1.6777813192044348e-49  2.4015545767167223e-56  1.1926678574541497e-19  2.4680147571018712e-65  -1.0691059933946107e-34  -3.8793105437499271e-51  2.4678687226123326e-32  -1.5368051119435647e-19  6.3586744172701879e-44  3.4508661096793485e-47  2.5511852042847659e-35  -6.0355238220935260e-26  1.3290193100264670e-28  8.5600092708191078e-46  1.4073501072266868e-59  9.7364100327309387e-20  3.0722175642038705e-55  -7.7664927688945803e-57  -1.5554274440126722e-35  2.0323573661111684e-44  -1.8129946911345435e-22  3.3340194544836796e-48  -7.6287605145119102e-17  1.2271285525451230e-61  6.2144497768557820e-39  -7.8497622063887709e-40  -5.8620152166721746e-58  9.3265232505352532e-53  -1.1182110461906490e-53  -1.2309296821258221e-55  1.0436387323580685e-56  -5.0092213894620410e-51  -2.5804130900557891e-31  7.2570018150366370e-56  3.0394917890725770e-41  9.7425622026472542e-33  -1.6158722496751356e-44  -9.2713986482840050e-46  5.7367702807663700e-62  2.5666043560719106e-39  -9.0836291810317090e-45  -1.4585882875606166e-45  -4.7062991162671189e-49  2.4173542868468156e-50  -9.9936926574587205e-39  -4.1117787117681897e-37  4.6025713911388735e-41  9.9462210832512030e-33  -4.8018835936733350e-50  1.3210088837652931e-57  -1.7728071069461180e-59  -1.0077402325284768e-52  1.5061008743523381e-50  5.5503126362506322e-54  3.3705718178506959e-62  3.1588978983921196e-47  -3.9286889787898860e-34  -3.6046841636114107e-61  4.9271868820059522e-61  6.4070701180238835e-58  5.0479284775173546e-42  2.8165188263629576e-34  2.8640496350642085e-25  -4.4499096688581039e-46  -8.4927425345428914e-45  2.6278341871432956e-23  6.9186354376210990e-31  -1.5705901507046671e-65  1.1181116384200754e-17  -1.4960140365772803e-44  -2.3645759575303725e-65  1.0581137919614941e-64  -1.3507175204981961e-71  4.1035690759495514e-52  1.2610971986154157e-56  -7.3791988544657488e-34  -9.4841350535984844e-46  -1.2870287816937004e-40  -3.0749292810313018e-29  -3.9783905155347236e-56  -1.9315548489267178e-58  -2.6697523868441079e-43  -2.6676194544346748e-52  -4.0918653290001971e-29  -5.3889893121063856e-42  2.6801806023125709e-32  2.2638222693248355e-30 