<?xml version="1.0"?>
<VTKFile type="UnstructuredGrid"  version="0.1"  >
<UnstructuredGrid>
<Piece  NumberOfPoints="6486" NumberOfCells="12696">
<Points>
<DataArray  type="Float64"  NumberOfComponents="3"  format="ascii">0 5 0  0 0 0  5 0 0  5 5 0  2.5 0 0  5 2.5 0  2.5 5 0  0 2.5 0  2.5 2.5 0  0 1.25 0  1.25 0 0  1.25 5 0  0 3.75 0  5 1.25 0  3.75 0 0  5 3.75 0  3.75 5 0  3.541666666666667 1.458333333333333 0  1.458333333333333 3.541666666666667 0  1.875 1.25 0  3.75 3.125 0  1.284722222222222 2.326388888888889 0  2.683189655172414 3.767959770114943 0  0.9375 0.9375 0  4.0625 4.0625 0  0.7252209595959597 3.026357323232324 0  2.763480392156863 0.9129901960784315 0  1.875 4.345238095238095 0  4.345238095238095 1.875 0  4.192708333333333 0.8072916666666664 0  0.8072916666666665 4.192708333333334 0  3.368055555555555 2.326388888888889 0  0.6837606837606839 1.738782051282051 0  3.285485245626782 4.324328415208927 0  2.551239698778062 1.693130150610969 0  1.827256944444444 2.868923611111111 0  3.464875022477093 0.6813924607921316 0  1.942880513719175 2.059558626187995 0  3.04563492063492 2.971230158730159 0  4.375 3.4375 0  2.13639445139758 0.5994472256987903 0  4.272228422619047 2.606956845238095 0  0.625 0 0  0 0.625 0  5 4.375 0  4.375 5 0  0.6400043240752655 2.384646170113389 0  1.347691225855598 1.660875475110776 0  3.515783617857982 3.723905460714006 0  3.125 0 0  1.875 0 0  0.625 5 0  4.375 0 0  5 1.875 0  0 1.875 0  0 3.125 0  1.875 5 0  5 0.625 0  0 4.375 0  3.125 5 0  5 3.125 0  1.489644181965304 0.6007147273217681 0  2.054597701149425 3.742302955665024 0  2.662520990197781 4.39452575763237 0  2.415835363784578 3.165530021913244 0  0.8679986894865213 3.602373689486522 0  1.267459753787878 2.886186079545454 0  4.099702380952381 1.365327380952381 0  1.316964285714286 4.438244047619047 0  3.7915135293491 1.959691594758709 0  2.875141124191255 2.118761176511833 0  3.00418010501169 1.397414179299248 0  0.4081721322167092 3.410647930198662 0  0.4166666666666666 0.9375 0  1.014190407998288 0.4422301359994293 0  1.383260571305984 1.162718286082048 0  4.53125 3.90625 0  4.453125 4.453125 0  3.772848162504192 4.48678272083473 0  2.8125 0.404329517041716 0  0.4538690476190476 0.4538690476190476 0  2.305461739347387 1.04517007574828 0  3.771263799175824 2.624190260297553 0  3.229617768018734 1.809956994202883 0  3.780190884441317 1.025307111692601 0  4.646337365591398 0.9375 0  4.537623451379149 0.4609485750426037 0  1.200477888421151 3.934852888421152 0  0.3536626344086022 4.0625 0  0.4623765486208503 4.539051424957397 0  4.0625 0.353662634408602 0  4.560525106689535 1.390989100915847 0  3.958439078571988 3.619844539285994 0  4.672619047619047 2.1875 0  2.1875 4.672619047619047 0  1.862808494877602 3.325947624431087 0  0.3268135998175443 2.8125 0  4.674181280189791 2.8125 0  2.283233994935276 4.138623547175983 0  0.9375 4.677879119362977 0  3.08488061581743 3.469889594488945 0  3.113427375573758 3.913955730709506 0  1.652847799068813 3.950848935641292 0  2.932652662909449 2.550542739521724 0  3.311350648514189 1.088831994878698 0  0.6770833333333333 1.295851139601139 0  0 1.5625 0  1.047214787840024 1.96818092308125 0  4.183331482095785 3.03958703580843 0  3.4375 5 0  1.071307777252521 3.246275861010018 0  0 2.1875 0  0.386576856303419 2.03125 0  1.713862716483534 2.439783116849799 0  1.775396256975935 1.665976816304977 0  2.231236976948428 1.443917394671254 0  2.373900732409897 2.086930260150635 0  4.114918237574474 2.221646174618671 0  3.661302567757379 4.099620139144836 0  3.378215938602977 2.734494874063393 0  0.9842097536079312 2.597286741306247 0  1.642795138888889 4.672619047619047 0  4.0625 5 0  2.099458800960004 2.567446522665629 0  2.616202751603346 1.297895893940078 0  5 4.6875 0  0.9937554350075428 1.512592975947215 0  2.8125 5 0  3.002695327068194 4.614055254615477 0  3.205627424097207 0.3852436382721472 0  1.678616581261621 0.927556612265266 0  3.365326698305438 3.196943731162083 0  1.554834936170314 3.120009882655813 0  3.108408340729323 0.7797187795784133 0  3.684368918102174 0.3728877601163941 0  2.716214835303553 3.39276351922003 0  2.37718583984784 3.551973401560441 0  0.3750662445374837 1.52191994866787 0  2.679073487930202 2.844160731602957 0  1.557635869750078 1.991068682985722 0  1.812595698561088 0.3839273018252746 0  2.512014721281916 0.6320641118792227 0  2.1875 0 0  2.349973454443689 0.3189980586887866 0  4.6875 3.59375 0  4.636052949022233 3.178355898044465 0  4.6875 5 0  3.345485909784306 4.665765449101383 0  0.536727472389443 3.749603193819277 0  4.349541499640203 1.116201826262156 0  2.886559045931982 1.774013674579691 0  0.6770833333333334 0.7142857142857143 0  1.5625 0 0  4.120842096538671 4.628726497527622 0  2.176157474177018 1.793470423744689 0  2.175650736889416 2.909863021769539 0  4.036616464259081 1.709699085170981 0  3.887974623473683 0.6492597046022868 0  3.4375 0 0  3.70675699592552 2.289666624772415 0  4.697265625 4.208984375 0  2.815177577303495 4.085937578239174 0  4.672619047619047 1.730733296184288 0  4.6875 0 0  5 0.3125 0  0.3125 5 0  0 4.6875 0  0.3276089296588581 2.484526834811734 0  0.712433309515852 2.065138854645612 0  0.6376435912223634 2.711473454001295 0  1.184991292170422 0.7222504400947201 0  1.31884329779317 0.3206944232264773 0  3.683609198994263 3.44428698533042 0  0.3125 0 0  0 0.3125 0  4.231797269642997 3.789141808928991 0  1.564375596050781 1.425998687184973 0  2.007640894175573 0.9032106925568466 0  0.955125897558294 2.276666098587227 0  1.43898735721003 2.611310720271951 0  1.954491523717513 4.040700257877075 0  1.752947649777421 3.652439445419346 0  2.509575750247638 4.678021307664052 0  4.687194709705067 2.499965519538002 0  1.5625 5 0  0.9375 5 0  5 2.8125 0  2.1875 5 0  5 1.5625 0  5 2.1875 0  4.0625 0 0  5 0.9375 0  2.8125 0 0  0.9375 0 0  0 0.9375 0  0 2.8125 0  0 3.4375 0  0 4.0625 0  5 3.4375 0  5 4.0625 0  4.010848109290813 3.306446973933037 0  0.3077461147713075 3.119700563473354 0  4.6796875 4.6796875 0  2.333079012424948 3.845757959077508 0  0.7829771267899832 3.317744656243421 0  1.159100632608513 3.532487125138763 0  0.799066251840424 3.893573750162776 0  1.57326499580282 4.255438189102632 0  0.7309366047093668 0.2991402264438908 0  0.3054777494262156 1.223275888123843 0  4.027475154280377 2.78211326942427 0  2.35270874745988 4.426658168476266 0  3.474236283732569 2.021154281686229 0  4.401414236174444 2.329446628171927 0  3.39403781747337 3.987097102903034 0  1.077524329801934 1.214100792470484 0  4.065611571711903 1.066085524514197 0  2.165399002716117 3.335637450367864 0  3.007639563081306 1.093684039371638 0  4.030818285732145 4.351883315180857 0  3.504115222530889 1.739284194222036 0  1.224503368215566 4.712091441401919 0  3.805634204685714 1.321528442399996 0  4.319233123479386 1.573547993867769 0  1.024007670021325 4.394604704797005 0  3.776400432023095 3.839003324979723 0  2.991819819453308 4.320567175146181 0  0.9782797534072181 2.886406017887129 0  1.763835134082104 0.6602345487826022 0  3.765182288741625 1.631193038541544 0  2.267959593989681 2.345053543725764 0  4.412434895833333 4.168294270833333 0  4.4072265625 4.7255859375 0  2.791493971314009 3.11210833271929 0  3.408766223032414 3.469500900677365 0  1.915147569444444 4.725484476461039 0  2.070301968506271 0.2605666686358055 0  2.767932250651506 1.530295992695836 0  3.280065043173439 1.364863281105779 0  4.45101570110842 2.974157152713635 0  3.521928862999512 2.96990445010402 0  2.552921961347576 4.008414007169315 0  0.2682955376854191 3.657555015841003 0  3.084522868361304 2.310593316718068 0  2.669255823227708 1.939379494498064 0  2.615884629473921 2.238841231570381 0  1.405652091971449 0.8877813821442277 0  3.25151486618811 3.68536115104276 0  1.963741569810629 2.331207252264507 0  4.017297980292599 2.486269171379106 0  3.869168920841219 4.748188103831625 0  3.596868753579134 4.77342723825056 0  2.41262958240343 2.764128584995838 0  1.266750578673391 1.404747710001619 0  1.559243962241121 2.85146506328516 0  3.128799423834764 2.052081657715259 0  0.6770833333333333 0.9778025793650794 0  0.2083333333333333 0.78125 0  1.978224492765132 3.087074731032578 0  4.051448850909273 1.969392119104174 0  1.320577095006813 4.172234780971559 0  3.214261103850064 2.534397293281829 0  0.2635729089754111 1.779234736680035 0  3.510775680035133 4.460728640112889 0  2.603081405968802 0.2432579385496493 0  2.866341315154884 0.6662105505481998 0  3.000919221100777 0.2270278495648781 0  1.298858304121393 2.05917319923859 0  2.020292299736597 1.589794568392338 0  0.7401688396476035 4.470780315741533 0  0.6721783535561408 4.733125588707921 0  3.753712482075402 2.874301339727514 0  3.557348205914658 2.491958694539413 0  1.094565978195436 0.2011034254079851 0  0.9338148378011396 0.6833568465908735 0  2.945530578578538 3.701798332963805 0  3.111707186654356 3.216904195825605 0  1.341791111822685 3.293123262233967 0  1.632939924064587 1.184895891095613 0  0.6335477978936732 3.517393619499591 0  0.5576014611130192 3.210998966942492 0  1.564344196470102 0.3630498725895039 0  2.75362450242839 4.626680495816594 0  3.571304405229554 1.192452351107437 0  3.522934592621944 0.9359134489437148 0  4.453125 3.671875 0  4.765625 3.828125 0  1.055906321410838 4.14310472322957 0  4.795146539102229 0.46875 0  4.767156345199235 0.7178596932040019 0  0.2048534608977711 4.53125 0  0.232843654800765 4.282140306795998 0  0.5393715189906129 4.270810883024032 0  4.329922600274667 0.2750645887059072 0  4.275515096738972 0.5448389557295173 0  4.477747423652795 0.7252838358993123 0  0.2002829820452772 0.46875 0  0.4352678571428572 0.6956845238095237 0  0.5007241582667088 0.2123388122114133 0  4.672890923830735 0.2500902110494848 0  0.4308009280819452 4.783624996516437 0  2.104871305393774 4.438653689007242 0  0.2274454167838428 0.2274454167838428 0  3.446466574593436 0.4359605369011901 0  2.12354112127588 1.217588426759619 0  2.309175236825235 0.7888355970690434 0  2.556178570281936 1.054299163237582 0  0.578683248637
[...]
<PointData  Scalars="f_10845-1"> 
<DataArray  type="Float64"  Name="f_10845-1"  format="ascii">1.1534492764909398e+01  4.0012461605771148e-02  3.4501508674485964e-03  2.5473277861844694e-03  2.1105953935422330e-02  3.1230735675173214e-03  1.4603964182220608e+00  8.5658524182765069e+05  2.0541624812730801e-02  -1.0865011978665213e+00  3.0767668913900162e-02  4.0593116310461470e+00  2.5414068677067294e+03  3.2958161334261621e-03  1.1551783511695191e-02  2.9915822429951787e-03  3.8762467983356036e-03  1.2928894903529943e-02  1.0809203416939987e+02  2.5894602769327625e-02  1.1388720148413750e-02  1.8844512766872594e-02  1.2171704736416863e-02  3.2732976596725610e-02  8.4366109171355990e-03  1.4755768759542214e+04  1.8943343098069897e-02  3.7603903075203476e+01  7.0996402943254225e-03  8.1775089298935077e-03  2.7006812198224713e+02  1.4336872580901232e-02  -1.3302513859563521e-02  8.0674416824608706e-03  2.0634241368062103e-02  1.9023066174512094e-02  1.3597937023317311e-02  2.4673299712270086e-02  1.6410398994403122e-02  6.8187703813295903e-03  2.3862928580878170e-02  7.5427021468086712e-03  3.5618500242122535e-02  3.6451438247285452e-02  2.9185708845164021e-03  3.6749989707092982e-03  -1.0777017215626093e+02  2.8288614469018761e-02  1.1871372980831711e-02  1.6173899833107113e-02  2.5823695628798861e-02  7.4217308875770431e+00  7.0523147606212661e-03  3.1570168819331917e-03  -3.0960445079834199e+03  5.0813923267174512e+04  3.4518772140209282e+00  3.3783343814078395e-03  1.9053829581948938e+02  1.4505945174451100e-02  3.0211054118964732e-03  2.8877617785619262e-02  -4.6170024934868775e-03  1.9243546866352129e-02  1.6681090636275469e-02  3.4534891315582963e+03  -5.8217994893969716e-01  8.8382197335708946e-03  6.1513811695797386e+01  1.1086248687336634e-02  1.8126430318980709e-02  1.7128258044662333e-02  1.1037824126570342e+04  3.3568143638760858e-02  3.2590231669368537e-02  2.9552573446871028e-02  5.7337381316467191e-03  5.6610924858588006e-03  6.8195149497171283e-03  1.8632842390555914e-02  3.6188863293677355e-02  2.2570645894318671e-02  1.1277203082031574e-02  1.5416317117830720e-02  1.1215863172990205e-02  5.2415336085703612e-03  5.9718268299283348e-03  6.1087914261140736e+02  5.1245281833032197e+02  4.8415593737626310e+01  9.2050771357181753e-03  5.6473588918326302e-03  9.6867078552398955e-03  4.9387178445384240e-03  7.0461944330789059e+00  1.3405220528352154e-02  1.5199126585972687e+05  4.8329223279012391e-03  2.9172952993731849e-01  2.1566560205010457e+01  1.4154621333890798e-02  1.0991022148731653e-02  1.1902703554807324e+02  1.7603783222285844e-02  1.4701834579736509e-02  3.0918631152023160e-02  -6.6744047604291140e+01  3.4735072203294921e-02  8.2258083126070056e-03  3.9980662764838989e-03  1.3128372453210516e+03  1.1747884718531099e+04  1.1569843384763523e+02  2.1914792362720349e-02  2.6366438543966156e-02  2.3117458220588329e-02  2.1908152910116253e-02  8.6451659645308473e-03  9.4178329911907294e-03  1.4240399190124665e-02  -3.9363151988752567e+00  1.6866383816678077e+01  3.7808205671861442e-03  2.1239434408439523e-02  2.0175839806011751e-02  2.7738983076151793e-03  2.9412261584888941e-02  2.3350874209125114e-01  6.3084301574401558e-03  1.5592046473264634e-02  2.7414547742367429e-02  1.4091989642558506e-02  -7.0337647760079836e-02  1.6314371548801176e-02  1.1898186185441816e-02  1.4889627960604382e-02  1.3772350666741873e-02  1.1822762589309719e+00  1.8601597112118139e-02  2.5732555586306514e-02  2.6378211852228377e-02  2.0885958828861923e-02  2.3396880534409369e-02  2.2117112178456053e-02  4.7456928442918041e-03  5.0721332779356653e-03  3.3706784070549299e-03  5.8016753354697484e-03  2.0732664090215699e+03  7.0534388710357023e-03  1.8084028153327304e-02  3.4738197325167322e-02  2.8355636904810713e-02  5.7694857644897844e-03  2.3516585702128265e-02  1.8631539066565287e-02  9.2412754187516429e-03  1.0366168592334237e-02  1.3826569240313395e-02  1.1745524420473722e-02  4.5651001423364142e-03  9.8549546417804126e-03  4.9495913254575868e-03  5.1000129566357551e-03  3.4298795546915126e-03  9.9433559254710833e+00  4.3821674526605804e+01  4.2686281661395415e+03  -3.1410130896879523e-01  4.0066737125962322e+02  3.1268182665508619e-02  3.0208453049241222e-02  1.1700832749955373e-02  3.8064394515186402e-02  3.8322159321914594e-02  7.7250130829747453e-03  2.8030942896222776e-02  2.4863969740201372e-02  9.8025516373133847e-01  -7.7960002498690005e-03  1.0613528177262440e+01  2.9226723028242354e+00  1.0420606941415296e+00  4.7797859472885713e-03  4.2417361812621746e+00  4.8514240446029753e+00  3.0664857918051148e-03  2.7009027297218422e+00  3.2083487918332966e-03  3.1416427665321421e-03  9.2322185022269930e-03  3.3601089685645364e-03  1.8630952030954183e-02  3.3165406018581062e-02  9.3337391770350317e-02  2.2016655520757416e+05  1.1534137382646366e+04  5.2672350268417711e+02  3.0124459179102035e-03  2.9571621903824339e-03  9.4413412964805144e-03  4.4178197012596887e+04  4.2262728923987865e-03  6.4427922685931166e-03  1.1348402877826786e+04  1.7199053513119397e+03  9.9005525167412918e+02  1.0875998105771590e+02  3.4788238796115263e-02  -1.2024038312422086e-02  9.3489415655300338e-03  1.3926645757516340e+00  1.3524537579616285e-02  6.6104911825608272e-03  1.0347105975898555e-02  3.1521562499355213e-02  9.0759411937455185e-03  1.5226232620742146e-02  1.7052309538235982e-02  7.4390492128577580e-03  1.3254288950835342e-02  1.9137937339560686e+01  1.1015033062232935e-02  7.2752389893294455e-03  9.2138453019917733e+01  1.0420409131634997e-02  8.0927486033603828e-03  -5.9721210170293276e+01  2.6759357696700962e-02  1.1234069210101401e-02  2.2200230219743371e-02  6.2997722080573720e-03  4.9276511736224497e-03  1.6876309898301804e-02  1.3273274187544029e-02  1.0765036243947399e+01  2.4343049257045741e-02  1.8975936739883608e-02  1.4956974499368194e-02  6.2987179080584779e-03  1.3108240124612258e-02  1.0018647649886605e-02  3.6006489858194095e+03  1.6511835264899331e-02  1.9722769869848746e-02  2.0086409903331544e-02  2.9542746488231231e-02  1.2538549646098244e-02  2.3047663359080085e-02  9.4063495223330653e-03  5.1890283750230248e-03  5.1307602329581413e-03  1.9645249105336819e-02  2.9994237255767598e-02  5.6075924071330108e-02  1.6188999559762926e-02  3.3840182314094462e-02  3.3952978242454045e-02  1.7617554832913426e-02  9.1176928995229025e-03  2.0098231497760997e+02  1.5502401095836242e-02  4.7053997376567011e+01  7.0840260132772233e-03  2.0247610888537094e-02  1.8132579648131239e-02  1.7174535152072998e-02  2.4481627092606657e-02  2.4744928709482073e-02  6.2505368521472128e+01  1.7801882867471857e+01  1.1373389930546880e-02  1.2902324102272116e-02  3.1950982522502218e-02  3.3130212970452079e-02  1.2564981227315782e-02  1.5451586037538233e-02  8.2384194191096167e+00  2.7769926328915208e-02  5.9832836723378296e+03  2.4807196259716828e+04  2.8315717325090577e-02  5.8835428996259952e-02  1.2759506453206891e-02  1.3186725554002250e-02  6.2614863933605682e-03  4.2600550299834936e-03  2.7280725423239215e+02  4.4240479973509132e-03  4.5904483331410846e-03  8.1055256100578774e+01  1.7642312004175912e+02  1.7714609009894198e+02  7.3479123231060843e-03  7.6904131159582891e-03  6.3213692219976749e-03  3.8501942897502098e-02  3.6305224468905002e-02  3.6581742216010189e-02  5.1661024699001263e-03  2.2028058479324997e+01  1.1673494971287381e+01  3.8087883202278003e-02  1.3709892432754184e-02  2.3954243860597309e-02  2.2539801303590540e-02  2.0637557702381605e-02  7.3243954798414939e+02  1.4853869588636021e-02  2.3448557266448844e-02  1.2801112930999445e+03  1.0658744354810405e-02  4.6096344370511856e-03  4.4079887861381067e-03  4.0709397282064587e-03  3.1164711279986244e-02  4.0059471572964998e+02  1.3627842526802056e+03  1.6611939701276703e-02  6.9227417992933906e-03  1.6410235046414964e-02  1.1917202625419133e-02  2.6583497382016957e-02  -6.9972977158734107e-01  -3.5231899321879104e-02  7.1473194585828176e-03  2.7131598157003264e-02  6.3361621063053597e-03  2.2473586748397400e-02  -5.4502324186114163e+02  4.3682080058383118e-03  -1.3168669477867649e+00  -2.0113903221933301e-02  8.4081277673302701e-03  9.1755955435467978e-03  9.7468035519788377e-03  3.0330188839842269e+00  5.0898654933673177e+04  3.6337328449929855e+05  3.8671532491013792e-03  5.9245540888118904e-03  2.4615232942299801e-02  1.4983819608858442e-02  1.4674182931828282e-02  8.2315129583464784e-03  1.2623058927983955e-02  3.8584505216465023e-03  9.5323183817399761e-03  1.8516252079214167e-02  1.1442289458412704e+01  2.0745957790623014e-02  4.8679847777983613e-02  3.2486742060958175e-02  3.0075045500404865e-02  1.4757033690096304e-02  2.2814948237974604e+04  -5.0874093157002091e+04  3.8962226595616462e-03  3.9732954996448029e-03  5.2605614670020651e-01  2.3282148946617482e+01  3.3760841708851885e-03  9.7610351405909689e-03  7.5317609991370788e-03  1.8835442789922770e-02  4.5085141045511333e-03  1.6699783250487071e-02  8.8784255598839158e-03  7.3004279822540724e+01  9.8807136415335499e+00  1.9097089749707582e-02  1.0157598100230764e+05  3.4340207313259465e-02  6.8148675300358577e-03  1.5301055104447667e-02  2.3384325970693096e-02  2.1848859475681926e-02  2.5997361775960889e-02  2.6647088601313925e-02  2.6567444950854995e-02  2.7788223698161918e-02  2.5052876758944593e-02  9.9495903771235020e-03  1.8924345753467280e-02  1.2975360185660400e-02  1.7047251665661619e-02  5.2854679473679916e-02  1.0258970864750244e+01  5.6896415652586260e-03  1.1537031316156965e-02  2.0904509667937669e-02  3.0994141254674104e-02  4.3345627524185858e+01  -1.9795551805663651e+00  2.6202223948158111e-02  6.9552882443589268e-03  1.7615844426045909e-02  1.5074176856600330e-02  5.3640881751375489e-03  1.9701721742007468e-02  3.5767528400784530e-02  8.4963714459557752e+02  1.0155001781893444e-02  7.7429533462783137e-03  1.7546902271269101e-02  7.9715061425328533e-03  5.5432962969463742e-03  -2.1240390248865840e+01  2.8003927330780783e-02  4.1789751828450782e-03  2.1944203360165615e-02  2.1241502330368214e-02  2.2290349490845126e-02  6.9214973210731893e-03  4.5174320079781437e+03  2.2896595722065190e+03  1.2611646832217068e-02  3.0768033034065303e-02  -9.9649996699999431e-03  4.3433329748507665e+00  2.1203728889775054e-02  1.1276679021157568e-02  1.1002136951933047e-02  7.1241533441954198e-03  -3.7449500337037835e+00  -3.9060948760283516e+00  1.0727134448127883e+03  1.2833466242704226e-02  1.0698222672772373e-02  9.4125587348529854e-03  2.9537092375392097e-02  1.8142395257325812e-02  7.5541717095580463e+00  2.7725092232875085e+01  9.0889691303419132e-03  2.0790411987313750e-02  3.0436466183689913e+02  1.8740247441850273e-02  9.5250692166549984e-03  2.8933619984798285e-02  5.8251424948308128e-03  9.0714002789473288e+03  2.3680074866581607e-02  1.2299178091355025e-02  4.1344659152965811e-03  2.6871788769246990e-02  1.4369176089867031e-02  1.8619266810018988e-02  2.5432911807507497e-02  6.0674336403059685e-03  1.5273274049774783e-02  1.0003014686553895e+03  7.3607348568407085e-03  4.6537876344752488e-03  6.2568448960590439e-03  3.1118043286246344e+00  2.4772069859462752e-02  2.8738220726155693e-02  2.0030229567127893e-02  -1.1806179127316827e-01  1.3929310972357103e-02  1.5857249136678256e-02  -2.9304946869185128e+03  8.1430292036032571e-03  8.5393941477814490e-03  -1.5738616737677080e+02  2.4320512557086662e+01  -3.1608819166070190e-03  1.5942250691169790e-02  2.9303802473591156e-02  1.0534815095894070e-02  2.8323986962161471e-02  2.6544651712767105e-02  2.2309299028343974e-02  1.9563549776160635e-02  1.9572939522976646e-02  1.3646372503006420e-02  1.2282851896204367e-02  1.6082812760580423e-02  3.3321542465650361e-02  5.7525906157818048e+00  6.1979097754790349e-03  5.8401569536735334e-03  3.9657632555040529e+01  1.2666754498389635e-01  5.2552337918448750e-03  2.8617509902562920e-02  2.3508954151144859e-02  2.3921433477023843e-02  1.3304944325516860e+02  -7.2283186382275133e-01  1.7607667551189601e-02  8.0282667162945801e-03  1.6815298248720214e-02  3.1701970407555266e-03  4.9544085131873897e-03  1.0816428753784095e-02  7.7906659040640333e-03  1.6775160349400032e+03  7.4004507875745779e-03  9.7951453586026267e-03  1.5379520699997876e-02  2.1336654985354843e-02  3.4391458243939417e-02  3.3283221734547504e-03  4.2192075392494220e-03  6.0893501906272469e+00  2.5754379590135188e-02  2.7999892806987841e+03  4.7613457420729155e+03  1.2417052299961713e-02  4.8516107874481858e-03  2.4956318757558459e-02  8.2532508867852392e-03  2.5063242825341538e-02  -2.7999934399332831e-02  9.8322266221653049e-03  5.5302436346318518e+03  6.2647778758593859e+02  9.8960587093935182e+00  1.0152599508648082e+01  2.3007577483136855e-02  2.7644275198111329e-02  1.9686219622373428e-02  5.4254752688908236e-03  5.9742585101012949e+01  8.8534469419271588e+01  1.3120678157889268e-02  1.2170344167507919e-02  1.0840833359171208e-02  5.2355243478817533e+02  7.4582524495147183e-03  8.0606924622625680e-03  2.1450260420260520e-02  3.2614316768286630e-03  8.2836101262734173e-03  8.6353919817583787e-03  1.0035988796899343e-02  3.8022674874408431e-03  5.2204498830458346e-03  3.9559156919487812e-03  3.4103412188318241e-03  2.8502280182416513e+00  7.9749745294200175e-03  -1.2961046312577230e+01  1.4604593291515218e+00  1.4895154518134650e-02  6.8943094036404539e-03  4.8608241245896334e-03  1.4194387394359978e-02  3.6936330241512270e-03  5.4266091776643960e-03  1.9398900736657447e-02  1.8354509216670391e-02  5.4645332945405072e-03  1.0726099927019901e+02  -1.8755187419015917e-01  2.6096891736760990e-02  1.0093416933831638e-02  1.3755953784294645e+01  6.2097994222292518e-03  3.5492624289249791e-02  3.5170028422844987e-02  3.3625597955595644e-02  9.3458421233387438e-03  4.2030141909749760e-03  1.3016790202754751e-02  3.4731127743113183e+02  4.0867222018086107e-03  4.1257062495521275e+01  1.6913030899246818e-02  1.3986974393079955e-02  8.4460423500770376e-03  3.5501716588420035e-03  1.6382567669960518e-02  6.1848500788008291e-03  3.8073847719826011e-03  -3.2762867997299250e-01  -4.2343433376973415e+01  1.4931367188711169e-02  5.8756156070145530e-03  3.9852933574480017e-03  4.9979772751929268e+00  1.1557014344861161e-02  3.1474672942258766e-02  1.5949681725059863e-02  2.9726777565638441e-03  1.9858437273427575e-02  -4.6980588821778013e-01  6.8667903859989443e-02  1.3584601613484912e-02  1.2038935091946706e+02  2.0628245874089880e-02  2.3512749414252552e-02  5.9177266264105518e-03  1.1347932222968482e-02  3.5566188885022575e-02  3.2136207593660147e+04  2.9900164173768593e-02  3.0696977367363015e-02  2.9734522237099905e-02  3.2034855951012464e-02  3.2109421435370988e-02  3.9825067942279814e-03  3.1522998157811405e-03  1.8673573533323138e-02  1.8854971393546808e-02  1.9383724450434493e-02  6.4332555800851196e+03  3.6408592274584213e-02  1.2300727155048326e-02  5.1854366039886367e-03  2.4629603832346938e-02  6.6447389793120029e-03  6.1424840121973405e-03  5.3973660420698621e-03  1.1002688386707130e-02  6.6261185224720442e-03  2.3549314992976661e-02  8.5456245000484245e-03  1.7725253419642470e-02  1.7649172042984834e-01  3.1948184450344019e+00  3.9140737415360685e-02  3.8300348210714340e-02  8.0118202319743089e-03  1.9845921786540505e-02  4.7870601941659690e-03  3.7068790731495466e-02  3.4058949037528743e+02  4.0560025047084490e-03  2.9081974131697618e-02  2.8973898311652240e-02  1.4194992570922918e-02  8.7471892950459727e-03  -4.8032833738364547e-02  2.3757789501260784e-02  3.8377066750690078e-03  3.5405780696204293e-02  6.7021769691777509e-03  9.1480392805342332e-03  2.5127646333718275e-02  7.4577609888079877e-03  3.2223490036504529e-02  1.1975005295441664e+04  6.8263700679268993e+01  1.5225393127566775e+02  -3.2317536698975531e-02  8.5742894283957899e-03  1.3773171714235682e-02  1.5479555206064031e-02  2.1833040604522680e-02  1.3250695062602940e-02  1.0140480171456367e-02  4.7980719621310971e-03  3.8628434167719801e-03  2.3076819240725141e+02  2.9652511236034532e+05  1.2970602961638691e-01  3.8179260609441652e-03  2.2256144093842307e-02  3.5751350456192702e-03  3.8655533894399587e+00  3.7708357989286114e-03  2.2066093341326667e+01  1.0123737220858491e+01  6.3788515683767877e-01  2.4213115898783784e+04  4.9230985863520100e+00  3.0150581483746560e-03  1.2693943866221588e-02  1.4992622295957304e-02  3.1371857663610161e-03  3.0901585261869109e-03  3.0409317418615099e-03  5.4344768429775831e+03  8.3734156753556512e+05  4.4700498112739489e+05  2.0669487602694154e+00  -8.1501713892144139e+00  2.7109893343807177e-02  1.0366859893003901e-02  1.1563179624571612e+03  8.3863872595804025e+00  3.6832573774688494e-02  8.9618437806658022e+01  3.4168455513905946e-03  3.1965779404397140e-02  1.7420093187287378e-02  3.6804363016457779e-02  6.9838120577391069e-02  3.8992025808041934e-03  2.8449743592730077e-03  2.7048983620212492e-03  3.0330787110314471e-03  1.0839624649462265e+05  6.5389603072904687e-02  -1.4652336441081984e-04  3.0032681213092534e-03  2.9654253737383153e-03  3.3613250093194893e-03  1.1046168598192683e-02  2.0193273829583280e-01  1.5803098648493413e-02  8.0905094274955172e+00  1.7554271402071314e-02  1.4258648300863996e+00  3.0627569468473996e-02  3.0642285678385079e-02  3.2309605508546606e-02  5.9350374825025845e-03  3.3783374545556050e-02  2.6851964408639201e-02  -8.7154971570053988e-02  5.3012664895249065e+02  1.9932095414099456e-02  2.3735102802576583e-02  3.0021919598583512e+01  8.6805695057440069e+04  5.1502930741386910e+04  2.3182570951787911e+04  1.4206921699482013e+05  3.9984433728861596e-01  2.7046766975088489e-02  5.8504909078599138e-03  1.2141973891226190e-02  1.1788075816360373e+00  6.9803901038979722e-03  2.9091712012862141e-02  3.9305375183272271e-03  4.8722373150883330e+04  1.7190467226806281e+00  2.2815264190947794e-02  -1.1794022970079882e-01  1.7719881874655702e-02  4.0697454346541754e+01  1.7900708772745230e-02  2.4625797349252094e-02  2.3295155797659561e-02  1.0786270283348177e-02  5.4153776956989835e-03  2.6805255291141691e-02  7.3068660837250715e-03  6.5199658069664910e-03  2.7563642403172363e-02  1.4247014315761954e-02  2.7004549088622636e-02  1.3440771054378978e-02  3.0161151709042142e-02  5.9283632614279859e-03  7.3931075858998463e+02  2.6761057760343778e+02  8.5464687831501521e-03  1.0545154776223652e-02  1.0088773533591649e-02  8.5578740326517928e-03  8.7611158464679442e-03  1.0540966103080531e+02  2.0190218599524492e+05  1.1180719457256830e-02  3.0077649956876294e+03  2.0172237576196649e-02  1.8914728834812595e+03  1.4030676985897078e+03  2.4620904393242299e-02  1.7297990425492956e-02  1.2173247099721344e-02  1.1583494549903546e-02  3.0686407012254858e+02  -3.3782895117683565e-03  1.9076078860348163e+04  5.7947591571781213e+03  6.4606524894093891e+03  2.2665242180884924e-02  7.2322093947104690e-03  5.7286763528560227e+00  1.2470693617567756e+00  6.7392475075856424e+01  1.2917114531902942e+02  5.0177115204057294e+01  6.2058137267158517e-03  1.5801479556628591e-02  1.7836271016773559e-02  6.0380754133683330e-03  4.2049230177724842e-03  6.8411196324359106e-03  1.0019354823081542e-02  -2.4821032877293978e-01  1.1571100961798190e+03  1.5349794579561713e-02  9.5917374486247844e-03  2.7246089073130583e-02  1.9743830133409079e-02  5.8066292602642275e-03  2.7616678522112463e-02  1.1138380428069819e-02  7.8896540839597882e-03  7.3455286138270608e-03  3.8187425544621901e-03  7.9347459295569869e-03  1.3652550215207604e+01  8.6014062388645698e+01  1.5932032087681239e-02  1.8736765485683805e-02  -1.2409105497244099e+01  1.0504965347046058e-02  9.8923692559875227e-03  4.9171707432359125e+02  5.3941381207177567e-03  2.1964932014211753e-02  1.6213363508645010e-02  -4.4403403493808975e+00  3.4427919926700938e+00  3.6588888620230172e+01  8.6218093055466074e+00  1.0174660058061114e-02  9.8942512875442610e+00  1.0004594140266557e-02  5.5588302199924668e-03  5.2683940566923999e-03  1.9238921781335165e+02  1.6162349500041095e-02  4.8461452323960465e-03  8.4566611216557348e-03  1.0598654962465837e-02  3.7064540669957971e+01  7.8505848648655729e+01  1.3579090292