<?xml version="1.0"?>
<VTKFile type="UnstructuredGrid"  version="0.1"  >
<UnstructuredGrid>
<Piece  NumberOfPoints="6486" NumberOfCells="12696">
<Points>
<DataArray  type="Float64"  NumberOfComponents="3"  format="ascii">0 2.5 0  0 0 0  2.5 0 0  2.5 2.5 0  1.25 0 0  2.5 1.25 0  1.25 2.5 0  0 1.25 0  1.25 1.25 0  0 0.625 0  0.625 0 0  0.625 2.5 0  0 1.875 0  2.5 0.625 0  1.875 0 0  2.5 1.875 0  1.875 2.5 0  1.770833333333333 0.7291666666666666 0  0.7291666666666666 1.770833333333333 0  0.9375 0.625 0  1.875 1.5625 0  0.642361111111111 1.163194444444444 0  1.341594827586207 1.883979885057471 0  0.46875 0.46875 0  2.03125 2.03125 0  0.3626104797979798 1.513178661616162 0  1.381740196078431 0.4564950980392157 0  0.9375 2.172619047619047 0  2.172619047619047 0.9375 0  2.096354166666667 0.4036458333333332 0  0.4036458333333333 2.096354166666667 0  1.684027777777778 1.163194444444444 0  0.3418803418803419 0.8693910256410255 0  1.642742622813391 2.162164207604464 0  1.275619849389031 0.8465650753054845 0  0.9136284722222221 1.434461805555556 0  1.732437511238546 0.3406962303960658 0  0.9714402568595876 1.029779313093998 0  1.52281746031746 1.485615079365079 0  2.1875 1.71875 0  1.06819722569879 0.2997236128493951 0  2.136114211309524 1.303478422619048 0  0.3125 0 0  0 0.3125 0  2.5 2.1875 0  2.1875 2.5 0  0.3200021620376328 1.192323085056694 0  0.6738456129277992 0.8304377375553881 0  1.757891808928991 1.861952730357003 0  1.5625 0 0  0.9375 0 0  0.3125 2.5 0  2.1875 0 0  2.5 0.9375 0  0 0.9375 0  0 1.5625 0  0.9375 2.5 0  2.5 0.3125 0  0 2.1875 0  1.5625 2.5 0  2.5 1.5625 0  0.7448220909826522 0.3003573636608841 0  1.027298850574712 1.871151477832512 0  1.331260495098891 2.197262878816185 0  1.207917681892289 1.582765010956622 0  0.4339993447432606 1.801186844743261 0  0.6337298768939392 1.443093039772727 0  2.049851190476191 0.6826636904761904 0  0.6584821428571428 2.219122023809524 0  1.89575676467455 0.9798457973793544 0  1.437570562095628 1.059380588255917 0  1.502090052505845 0.6987070896496241 0  0.2040860661083546 1.705323965099331 0  0.2083333333333333 0.46875 0  0.5070952039991439 0.2211150679997147 0  0.6916302856529919 0.5813591430410241 0  2.265625 1.953125 0  2.2265625 2.2265625 0  1.886424081252096 2.243391360417365 0  1.40625 0.202164758520858 0  0.2269345238095238 0.2269345238095238 0  1.152730869673694 0.5225850378741401 0  1.885631899587912 1.312095130148776 0  1.614808884009367 0.9049784971014416 0  1.890095442220658 0.5126535558463003 0  2.323168682795699 0.46875 0  2.268811725689575 0.2304742875213018 0  0.6002389442105756 1.967426444210576 0  0.1768313172043011 2.03125 0  0.2311882743104251 2.269525712478698 0  2.03125 0.176831317204301 0  2.280262553344767 0.6954945504579233 0  1.979219539285994 1.809922269642997 0  2.336309523809524 1.09375 0  1.09375 2.336309523809524 0  0.9314042474388009 1.662973812215543 0  0.1634067999087722 1.40625 0  2.337090640094896 1.40625 0  1.141616997467638 2.069311773587991 0  0.46875 2.338939559681489 0  1.542440307908715 1.734944797244472 0  1.556713687786879 1.956977865354753 0  0.8264238995344066 1.975424467820646 0  1.466326331454725 1.275271369760862 0  1.655675324257095 0.5444159974393489 0  0.3385416666666666 0.6479255698005697 0  0 0.78125 0  0.5236073939200119 0.984090461540625 0  2.091665741047893 1.519793517904215 0  1.71875 2.5 0  0.5356538886262603 1.623137930505009 0  0 1.09375 0  0.1932884281517095 1.015625 0  0.8569313582417669 1.2198915584249 0  0.8876981284879677 0.8329884081524883 0  1.115618488474214 0.7219586973356271 0  1.186950366204949 1.043465130075318 0  2.057459118787237 1.110823087309335 0  1.830651283878689 2.049810069572418 0  1.689107969301489 1.367247437031697 0  0.4921048768039656 1.298643370653124 0  0.8213975694444444 2.336309523809524 0  2.03125 2.5 0  1.049729400480002 1.283723261332814 0  1.308101375801673 0.6489479469700392 0  2.5 2.34375 0  0.4968777175037714 0.7562964879736076 0  1.40625 2.5 0  1.501347663534097 2.307027627307738 0  1.602813712048603 0.1926218191360736 0  0.8393082906308107 0.463778306132633 0  1.682663349152719 1.598471865581041 0  0.7774174680851571 1.560004941327907 0  1.554204170364662 0.3898593897892066 0  1.842184459051087 0.186443880058197 0  1.358107417651776 1.696381759610015 0  1.18859291992392 1.77598670078022 0  0.1875331222687418 0.7609599743339348 0  1.339536743965101 1.422080365801479 0  0.7788179348750389 0.9955343414928611 0  0.9062978492805438 0.1919636509126373 0  1.256007360640958 0.3160320559396114 0  1.09375 0 0  1.174986727221844 0.1594990293443933 0  2.34375 1.796875 0  2.318026474511116 1.589177949022232 0  2.34375 2.5 0  1.672742954892153 2.332882724550692 0  0.2683637361947215 1.874801596909639 0  2.174770749820102 0.5581009131310781 0  1.443279522965991 0.8870068372898454 0  0.3385416666666667 0.3571428571428572 0  0.78125 0 0  2.060421048269335 2.314363248763811 0  1.088078737088509 0.8967352118723447 0  1.087825368444708 1.454931510884769 0  2.018308232129541 0.8548495425854904 0  1.943987311736842 0.3246298523011434 0  1.71875 0 0  1.85337849796276 1.144833312386208 0  2.3486328125 2.1044921875 0  1.407588788651747 2.042968789119587 0  2.336309523809524 0.865366648092144 0  2.34375 0 0  2.5 0.15625 0  0.15625 2.5 0  0 2.34375 0  0.1638044648294291 1.242263417405867 0  0.356216654757926 1.032569427322806 0  0.3188217956111817 1.355736727000647 0  0.5924956460852111 0.36112522004736 0  0.6594216488965849 0.1603472116132387 0  1.841804599497131 1.72214349266521 0  0.15625 0 0  0 0.15625 0  2.115898634821499 1.894570904464496 0  0.7821877980253907 0.7129993435924866 0  1.003820447087786 0.4516053462784233 0  0.477562948779147 1.138333049293613 0  0.719493678605015 1.305655360135975 0  0.9772457618587566 2.020350128938537 0  0.8764738248887107 1.826219722709673 0  1.254787875123819 2.339010653832026 0  2.343597354852534 1.249982759769001 0  0.78125 2.5 0  0.46875 2.5 0  2.5 1.40625 0  1.09375 2.5 0  2.5 0.78125 0  2.5 1.09375 0  2.03125 0 0  2.5 0.46875 0  1.40625 0 0  0.46875 0 0  0 0.46875 0  0 1.40625 0  0 1.71875 0  0 2.03125 0  2.5 1.71875 0  2.5 2.03125 0  2.005424054645407 1.653223486966518 0  0.1538730573856537 1.559850281736677 0  2.33984375 2.33984375 0  1.166539506212474 1.922878979538754 0  0.3914885633949916 1.65887232812171 0  0.5795503163042564 1.766243562569382 0  0.399533125920212 1.946786875081388 0  0.7866324979014098 2.127719094551316 0  0.3654683023546834 0.1495701132219454 0  0.1527388747131078 0.6116379440619215 0  2.013737577140188 1.391056634712135 0  1.17635437372994 2.213329084238133 0  1.737118141866284 1.010577140843115 0  2.200707118087222 1.164723314085963 0  1.697018908736685 1.993548551451517 0  0.5387621649009668 0.6070503962352419 0  2.032805785855952 0.5330427622570983 0  1.082699501358059 1.667818725183932 0  1.503819781540653 0.5468420196858188 0  2.015409142866072 2.175941657590429 0  1.752057611265444 0.869642097111018 0  0.612251684107783 2.356045720700959 0  1.902817102342857 0.6607642211999982 0  2.159616561739693 0.7867739969338844 0  0.5120038350106624 2.197302352398502 0  1.888200216011548 1.919501662489862 0  1.495909909726654 2.16028358757309 0  0.489139876703609 1.443203008943564 0  0.8819175670410521 0.3301172743913011 0  1.882591144370812 0.8155965192707721 0  1.133979796994841 1.172526771862882 0  2.206217447916667 2.084147135416667 0  2.20361328125 2.36279296875 0  1.395746985657004 1.556054166359645 0  1.704383111516207 1.734750450338683 0  0.9575737847222222 2.36274223823052 0  1.035150984253136 0.1302833343179028 0  1.383966125325753 0.7651479963479179 0  1.64003252158672 0.6824316405528895 0  2.22550785055421 1.487078576356817 0  1.760964431499756 1.48495222505201 0  1.276460980673788 2.004207003584658 0  0.1341477688427096 1.828777507920502 0  1.542261434180652 1.155296658359034 0  1.334627911613854 0.9696897472490321 0  1.30794231473696 1.119420615785191 0  0.7028260459857245 0.4438906910721139 0  1.625757433094055 1.84268057552138 0  0.9818707849053143 1.165603626132254 0  2.0086489901463 1.243134585689553 0  1.934584460420609 2.374094051915812 0  1.798434376789567 2.38671361912528 0  1.206314791201715 1.382064292497919 0  0.6333752893366955 0.7023738550008095 0  0.7796219811205605 1.42573253164258 0  1.564399711917382 1.026040828857629 0  0.3385416666666666 0.4889012896825397 0  0.1041666666666667 0.390625 0  0.989112246382566 1.543537365516289 0  2.025724425454636 0.9846960595520872 0  0.6602885475034063 2.086117390485779 0  1.607130551925032 1.267198646640915 0  0.1317864544877056 0.8896173683400176 0  1.755387840017567 2.230364320056445 0  1.301540702984401 0.1216289692748247 0  1.433170657577442 0.3331052752740999 0  1.500459610550388 0.113513924782439 0  0.6494291520606965 1.029586599619295 0  1.010146149868299 0.794897284196169 0  0.3700844198238017 2.235390157870766 0  0.3360891767780704 2.36656279435396 0  1.876856241037701 1.437150669863757 0  1.778674102957329 1.245979347269706 0  0.5472829890977179 0.1005517127039925 0  0.4669074189005698 0.3416784232954367 0  1.472765289289269 1.850899166481903 0  1.555853593327178 1.608452097912802 0  0.6708955559113426 1.646561631116984 0  0.8164699620322933 0.5924479455478063 0  0.3167738989468366 1.758696809749795 0  0.2788007305565096 1.605499483471246 0  0.7821720982350511 0.181524936294752 0  1.376812251214195 2.313340247908297 0  1.785652202614777 0.5962261755537186 0  1.761467296310972 0.4679567244718574 0  2.2265625 1.8359375 0  2.3828125 1.9140625 0  0.5279531607054191 2.071552361614785 0  2.397573269551114 0.234375 0  2.383578172599618 0.3589298466020009 0  0.1024267304488855 2.265625 0  0.1164218274003825 2.141070153397999 0  0.2696857594953064 2.135405441512016 0  2.164961300137334 0.1375322943529536 0  2.137757548369486 0.2724194778647587 0  2.238873711826398 0.3626419179496562 0  0.1001414910226386 0.234375 0  0.2176339285714286 0.3478422619047619 0  0.2503620791333544 0.1061694061057066 0  2.336445461915368 0.1250451055247424 0  0.2154004640409726 2.3918124
[...]
<PointData  Scalars="f_16-1"> 
<DataArray  type="Float64"  Name="f_16-1"  format="ascii">5.5898839204932492e-04  1.3683928561123096e-08  7.5984877909957641e-08  9.1899872839664842e-04  8.4053453263347236e-08  3.4627051918550139e-06  5.9426524798470977e-04  5.6548799141361737e-04  1.1678994326531054e-03  5.5549916667906409e-04  7.9996773499498540e-08  5.5984552355102383e-04  5.6542121402360383e-04  7.5436816148967708e-08  8.0694121261955947e-08  1.9914653837936069e-04  1.0027683636741466e-03  1.4655408283747609e-06  6.0226499321374793e-04  2.2679011871432815e-04  4.9345936164760988e-04  1.1465608596272323e-03  1.1139666251037080e-03  1.3045971946260401e-03  1.0012649554035635e-03  5.6851394216145582e-04  5.9985013239370580e-07  5.8348044320061091e-04  1.0194053279025685e-06  7.9515398680245181e-08  5.6510102617621401e-04  1.6594138364468166e-04  9.7622343564896972e-04  1.1003449288797614e-03  1.7042441867425089e-04  1.1805481419658777e-03  8.3492619573986132e-08  1.3880312716521715e-03  1.0335234956231338e-03  2.9693410786281037e-04  5.4749937188453892e-07  4.0856476875920151e-05  5.0878859369222416e-08  5.6323987562093804e-05  5.6490047486314904e-04  1.1295017143609968e-03  5.9491857446878705e-04  1.8466081733346633e-03  1.1664105491076676e-03  8.2307957654395130e-08  8.5372951932975902e-08  5.5872893000793935e-04  7.8715026215193765e-08  1.6264425806671292e-07  5.6532941637912990e-04  5.6549133232778334e-04  5.6245870602839466e-04  7.5378909102071749e-08  5.6450950224170811e-04  7.3321718924156338e-04  3.9213561399816478e-05  8.3891468959978788e-06  7.3324695398535990e-04  7.4899995878797130e-04  1.3486785755524578e-03  5.6624976795897767e-04  6.9386813202181096e-04  1.5210200319251477e-07  5.6510053247587917e-04  1.1249958137085011e-05  2.8791446307526152e-04  8.4865539495362285e-06  5.6550711955437728e-04  3.0877825196700087e-03  1.5054573089037316e-05  7.2825817174549464e-04  5.1166895810044225e-04  9.6585276272913301e-04  1.1751899804654342e-03  8.5191602965115347e-08  2.5121235110804613e-04  1.0850341538640884e-05  1.5120842832663935e-04  3.6026154765882276e-05  9.6228503097201866e-08  7.7196254227912221e-08  7.7864705334843802e-08  5.6754137990575309e-04  5.6522409331706623e-04  5.6373705546130094e-04  7.9716469893805846e-08  9.0644910027737993e-08  7.4593071748005476e-04  1.9393161102089385e-06  5.8859624924682916e-04  8.3546065805896474e-04  5.6564920251856842e-04  2.8902522386446802e-05  6.8980062346234985e-04  5.6291758765628010e-04  1.2894748114780884e-03  1.2256228166155098e-03  5.8904861918603144e-04  6.7905347380654651e-04  2.9021025646048489e-07  2.1153231344432197e-03  5.6449918669901973e-04  1.2929930607951934e-03  1.7621562341832610e-04  8.6564618650385595e-04  5.7990569012803515e-04  5.6544775323096865e-04  5.7957406991118775e-04  1.4982553817505090e-03  1.0461326733767525e-03  1.5918405274904974e-04  7.9861613602644536e-04  1.4143573612983396e-05  1.2079902958097991e-03  4.4451964561583769e-04  6.6097038060451555e-04  5.6521594891787558e-04  1.1104945880176021e-03  1.5086731424809440e-03  1.7946088720976791e-05  7.7218872638469787e-04  2.0692512786069611e-03  6.4271346035134303e-04  8.0827342456973276e-04  8.2385776220641867e-08  7.2651876100076796e-05  9.1136475284099030e-04  7.4008758150412421e-04  1.1432851275888582e-07  8.0751955613782801e-08  1.3321489040396756e-03  1.0530796220033325e-03  7.3369227404402400e-04  1.2670006803465010e-03  1.7306502254804033e-03  2.1343339887096194e-07  1.8680482351322838e-07  8.4860223321818649e-08  9.0337215021406411e-08  2.3135586182024062e-04  9.8340137818320121e-05  1.0486719724437502e-03  9.5691265883087948e-04  5.6545665728428558e-04  8.1058894158252076e-08  8.6311591857554104e-05  1.3502409282660300e-03  8.5496956991163227e-08  1.1557519635471112e-03  6.1999256794255018e-04  1.3963990795493250e-03  1.1354510465230706e-06  8.0383417279743275e-08  8.1523395839749865e-08  5.9223079780632274e-05  6.2413197376967253e-04  9.8731177286940849e-04  1.6755465900116666e-07  7.7544048291336200e-08  7.5800839045317814e-08  5.5892945245551164e-04  5.6220482505791236e-04  5.6634586583942457e-04  7.1379549431788212e-04  5.7164871976726284e-04  1.3330485655401575e-04  5.1625966016696918e-07  8.3934014427070221e-04  1.0076359365369241e-08  5.9868095207304889e-07  6.5518559827694748e-04  9.5531468906620001e-04  1.5326088933257001e-05  8.0147088467345828e-04  1.0242371219722100e-03  6.2281906710167560e-04  6.4959623794115322e-04  6.3301853789830972e-04  7.7747774325611788e-06  5.6044412244756034e-04  5.5897853804358333e-04  1.2296261605785459e-05  5.7108839927602650e-04  8.3533862874825873e-08  6.6455352125565224e-07  7.9819901889008281e-08  7.5013598835934946e-08  8.3102094344852797e-08  7.0869887791208380e-08  5.1416269598977642e-04  5.6549262065719969e-04  5.6548103030594791e-04  5.6523544785922776e-04  9.5909141728729155e-05  3.6500521965387935e-04  4.2847463609327791e-04  5.6552202117884161e-04  9.4731572972477605e-04  8.3273957584204092e-04  5.6691153043592621e-04  5.7317101034455890e-04  5.6550458076797775e-04  5.7111168147351056e-04  5.0300398219032925e-06  9.3965877130342695e-04  1.3022113225650102e-04  6.4250788132846188e-04  4.1192444952776211e-05  8.4615782258686608e-06  1.2483031763515912e-03  1.7920540768193169e-03  8.5165757104692798e-08  1.0597222616491918e-03  8.9767631272280830e-07  1.1406898509698587e-03  8.9186993898078950e-06  5.6285812711557475e-04  2.4051947930646197e-07  2.0841281504276483e-07  5.6469632482786193e-04  1.0614152312897324e-03  9.4991029908315407e-04  5.9697945598694046e-04  5.2315188538365106e-06  1.7389315938524787e-06  1.2880613331068009e-03  8.1494640452478659e-04  1.0927861679330241e-03  1.3209599199747917e-03  1.1011078239356021e-03  5.6930952781236678e-04  9.3065830977413658e-08  4.0894509207733520e-05  2.1229560767751264e-06  8.4092206421432268e-05  5.5005937966151836e-04  8.7272528891254566e-04  5.6545806454224472e-04  2.9922948355810391e-04  2.7640981971666285e-04  6.7433934512031973e-04  1.8532748102554836e-04  1.2701669309398925e-03  1.5521777793219697e-03  5.5742277673664636e-05  1.1254851797111757e-03  1.0191488918447882e-03  1.4215442768916303e-03  1.6985920455225418e-03  9.1898731226984574e-04  1.2425601579052457e-04  2.7252977657316936e-03  2.7678059358227577e-03  1.1041965071623776e-03  4.8134243742450729e-06  5.6696150409669575e-04  3.9754847523717032e-04  5.7849705511067208e-04  1.1207218068649207e-03  8.4369527694762667e-08  1.1505562308943725e-07  8.2702075100994838e-08  1.5430270765293386e-03  5.1580505485482753e-04  5.6424112082741778e-04  5.6212410100930812e-04  2.9005605117173115e-04  1.7189345156333168e-04  2.2610397010691300e-07  3.2155123067621928e-04  1.2706615254931366e-03  1.1592572137985276e-03  6.1302009104210369e-04  3.8958575194039403e-04  5.6561864373006073e-04  5.6576427752010527e-04  4.0561189870098302e-07  7.0815142023786031e-04  2.3760458126944537e-07  1.0109620941304190e-07  4.0453833643691622e-04  3.1638369257832888e-04  5.6551604109324335e-04  7.6467290565847680e-08  7.6548309139491557e-08  5.6374033113970525e-04  5.6486883991557248e-04  5.6489719289813331e-04  7.8801756198598701e-08  7.8986535716421193e-08  7.8190057339375777e-08  4.3815383133895112e-04  3.5268122174465120e-03  4.8360162215145010e-07  7.7321263059303089e-08  5.6134269638181186e-04  5.9955322004085453e-04  2.6446117719397844e-07  8.1634573189149937e-08  7.5285273540705395e-05  1.3494018428093661e-06  4.2780067835746874e-06  5.6532934575857449e-04  7.5626088685354614e-04  1.5397546442316500e-03  5.6537183128600494e-04  8.0323376951318689e-08  7.7400258293088237e-08  9.0785589118597842e-08  7.5102774097559916e-04  6.4550914833987473e-04  5.7902125560183981e-04  5.6657840805411262e-04  2.3392287379270888e-05  1.8185374241890115e-04  7.3688166789338393e-04  8.2890718954272262e-08  1.5039579170855932e-03  6.7842538939679267e-04  7.7784567279004719e-04  1.0158895264704394e-07  9.1836045149528189e-08  2.4755411469613606e-06  7.3188701873412706e-04  5.7272731211569113e-04  3.9745283903399136e-07  5.8245591261089707e-04  8.4122972121309020e-04  4.6598116413438894e-04  8.9496416498794783e-04  8.1546135984139862e-08  5.9056944945179890e-04  5.6643746300792436e-04  5.6552413594828602e-04  3.2508222637188668e-05  2.5213691953408767e-05  1.6524248247665365e-03  8.1910077393083835e-08  7.7772155754289783e-06  1.1890495998829636e-03  8.1067244528561508e-08  8.2570509455819928e-05  1.1690455457703897e-03  5.5704809066182211e-04  5.6235726776177964e-04  1.4376618809774119e-03  1.2183074010414326e-03  2.3685251003458950e-03  2.2267010583780782e-03  1.1061442291367439e-07  5.6548911049390165e-04  5.6559623114120678e-04  9.5635513001988869e-06  2.3038722063712646e-06  6.3381251105331749e-04  5.6112079593950692e-04  9.3045581443938828e-04  3.1138419356246174e-04  8.3133494377135602e-05  2.9396694791444436e-06  1.1417619287004519e-03  8.6399753325253263e-08  1.2101558024071269e-03  5.8675351762539087e-04  6.3167658881301946e-04  1.0465501321771098e-03  5.6549837255012909e-04  1.2986164928381787e-04  1.0224459804846105e-03  1.3188670035661379e-03  1.2976813844673620e-03  4.4699430550264178e-04  7.1484564374502081e-04  1.7711220450382734e-03  6.2141479687635801e-04  1.4242824336913392e-03  1.0348401024669646e-03  4.8065582314089954e-07  1.2055216448471683e-03  9.0025660824761438e-04  1.2445335228860263e-03  7.0150658017662242e-04  6.1454455207828149e-04  5.9129511169390708e-07  9.2626122537752648e-04  1.0024103260497788e-06  1.2873284529259510e-05  5.6973180706390949e-04  6.5503532629554212e-04  1.4826748787267288e-03  7.2644973885076431e-04  1.0432071751848783e-03  8.4050806398729259e-08  1.8089003627555524e-04  1.4193657415456867e-03  9.8157439974820224e-04  5.6684526037806195e-04  1.7556504752344003e-05  4.0846799557691443e-06  1.3891140049951886e-03  2.3814877704107828e-05  8.2012382222874589e-04  6.1774664415985346e-04  1.9283541120297997e-03  7.6650063173288930e-08  3.6245902533775772e-05  9.0028350217274641e-05  2.5902560827228716e-04  7.8793221357602465e-08  5.6950118715724698e-04  5.7605023423210988e-04  2.9098136699139425e-04  2.2773560023874387e-03  1.1128672549988907e-03  5.5927010825237023e-04  1.3965465772264813e-03  1.1301927184982940e-03  9.4040203704858427e-04  9.5383675974649988e-04  6.8284825696634968e-04  6.3738147940319121e-04  5.7140288763472575e-04  8.6388429199102932e-04  1.1988393173966985e-03  1.1121345381584597e-03  8.4295890642876541e-08  1.4209632389206423e-03  5.6352196961632559e-04  5.6462658011396688e-04  7.9669143109271961e-08  9.4832667292695394e-08  5.7257858775651795e-04  8.3309109801258923e-08  1.0733200576534950e-03  1.0942571340323097e-07  7.9903725459948903e-08  5.6548089150524846e-04  9.9302028528579266e-04  8.1237305069428097e-08  1.0649387305956604e-03  1.8118786006079139e-03  1.1499369911887609e-03  1.1436292545125391e-05  7.7459612152029885e-07  7.8175198312992995e-08  1.1910178279486488e-03  5.6694128240270230e-04  8.0905528498127690e-04  4.7344790785064063e-04  2.7243873899970619e-07  5.6527838076470449e-04  2.5906682945032745e-04  1.8649395993224399e-03  1.4736970797011285e-03  5.7542064353797073e-04  1.3147107475338941e-03  1.1709966888079535e-06  5.7049482779572124e-04  7.9246858560379524e-08  7.9487255560700210e-08  5.9073473204229049e-04  5.7333215514180030e-04  1.0270620270611708e-03  2.4599810449194033e-07  1.2489262603715484e-03  8.0219485899862985e-08  3.7983995851003459e-05  1.2940225507593908e-04  1.6783259188362540e-07  2.2762253490610897e-07  1.0189782513933311e-07  1.1886490605780798e-03  1.0123108448642257e-03  1.3670721822710847e-03  1.2534511172094231e-06  5.5882148371345810e-04  1.1713111369218675e-03  1.0931112982751033e-03  5.6387560591234800e-04  8.6568856623729195e-04  7.9025527128793159e-04  2.6869461997777532e-04  1.3413812515102196e-07  1.2392066886348786e-03  5.6536993086319959e-04  6.9898455713012213e-04  2.1912396943563878e-07  3.1269713091145883e-04  8.1987782929325429e-05  1.0507779122335899e-07  5.6341068330947368e-05  7.4800689108390849e-05  1.1921265170345657e-03  5.6540897027902574e-04  9.3361978978666489e-04  1.1675269916328220e-07  1.5927432711794489e-04  9.6178432125964880e-04  6.8774750799306689e-08  7.4959235281628378e-08  7.6060363054307955e-08  5.7228065146575568e-04  9.2536880404132024e-08  5.6560160518418715e-04  5.6548539748020653e-04  1.4661411257582631e-05  1.1421217118544982e-03  3.3296270939162391e-06  8.3641733377934346e-04  6.0651494029930869e-05  9.1941918877139000e-04  3.1393085639095881e-05  5.6546150810592687e-04  5.6574464683635181e-04  5.6086565779050210e-04  5.6134463022559694e-04  8.5638216305439900e-08  1.6390086786732904e-06  8.5031679495443198e-04  1.1876335352917560e-07  5.6677918803575526e-04  6.0011351189737756e-04  7.4448103441789927e-05  3.0118331060411617e-05  5.9487216562542937e-04  5.6524732950652965e-04  4.7590331518791842e-04  9.1342764657455436e-08  8.4598898821520913e-08  7.7411838381566386e-08  1.4847455831527904e-06  3.2859152207415945e-07  3.7718073485367631e-06  2.0581419226514599e-04  3.6191342655619022e-04  1.3477168502304502e-04  7.5933901662622104e-08  6.3669540335521289e-04  8.0357951577135313e-08  6.0829302807143112e-04  6.8703321618229026e-04  6.0443395879718618e-05  1.0189323684697813e-03  9.2123864076339124e-04  2.6115999541503069e-04  5.8682800612025053e-04  8.0870450344784791e-04  1.4295731643530283e-04  1.7540604368783603e-04  7.7384224243501199e-08  5.6459021525228075e-04  7.1087170239369645e-04  1.4718177152214876e-05  6.2615495734909201e-04  5.7971873740404105e-04  7.8115102035363461e-08  9.9319425868056761e-04  3.0481718769470693e-03  1.1933091458124223e-03  8.4586075619115238e-04  7.6471017642137509e-08  6.9877102190133778e-04  5.6518996149560559e-04  7.8180316009899788e-08  5.6279639960352080e-04  8.3220248121182833e-08  5.5941384738732131e-07  9.0745878642578125e-04  7.9878344071566173e-04  1.2184372246634642e-03  1.1087471323094351e-03  4.5830806308220725e-04  7.7339531661002581e-04  5.9794979984229566e-04  1.2649693133020801e-03  1.1761114438923713e-05  1.5201790212744986e-07  6.3479561941467738e-04  1.2554514885402207e-03  1.4338178277179328e-06  7.1917400993898486e-06  2.7007804100507210e-04  1.2564953206183800e-03  6.4016271118221403e-04  7.9809147517319627e-04  1.2280128829292812e-03  5.8645066103993576e-04  5.3813988216455070e-04  7.3001654179277503e-06  4.6480999953459928e-05  5.4159180037311820e-06  7.6492713038976129e-05  5.6667579550786368e-04  5.4492314457625452e-05  1.1977226220203892e-07  3.8810775679043945e-06  5.3697331520181815e-04  6.4416215406131247e-05  9.5999987380149771e-07  2.9512836612454182e-07  1.3966582547383386e-03  1.2790113473991340e-03  3.9781657635555595e-04  5.7031779275463384e-04  5.5473892490666222e-03  1.0517019539816464e-03  4.8203407419050087e-06  8.5152039196202797e-08  5.5699056189290204e-04  7.8503868312920768e-08  6.5594840323994876e-04  1.0149234352549324e-03  1.1233508794209223e-03  3.8939233517340847e-04  6.3824902546372284e-04  2.6643449846899936e-05  6.8161258485032155e-04  6.0706646970086996e-04  1.3343178010217229e-08  1.7353850440079485e-08  8.3456020485300915e-04  8.3561212254631317e-08  9.0170022767948428e-04  3.4086383039689158e-05  5.6491932630233193e-04  7.5748331264939618e-08  1.0589516473449097e-03  1.5037201481967841e-03  2.5676446178699967e-05  2.9065708073057440e-04  7.9854057380072702e-04  2.0922080930485906e-06  1.0622101577350178e-03  2.0278102598167231e-07  7.8459646311738832e-08  7.9865393341729967e-08  1.6005570432262426e-07  7.6554698310935829e-06  2.5939523564595768e-03  5.6562019108990862e-04  5.7567693155769276e-04  5.7778843641493195e-04  6.8570765853374622e-04  1.1174628338876560e-03  8.1484596658479080e-08  1.0081339137584823e-03  1.5403545543668409e-03  1.2380524214282132e-03  2.2873704402189807e-04  1.5241305538011286e-05  4.9723362523903395e-06  5.6496323171355322e-04  5.6557298220273025e-04  6.6734091732412475e-04  5.0547974777812941e-05  8.4470627567521802e-08  1.1025976889762915e-03  5.6113490306092034e-04  1.1312250589111676e-03  5.6059997387692101e-04  5.5908508495441283e-04  6.1489748407112074e-04  5.6548817229707977e-04  5.6014711647536276e-04  6.3761334293080740e-05  8.1057486245711803e-08  8.1928545681543881e-08  1.5322274989225719e-06  6.3773494972260487e-06  2.3193423952349761e-05  5.6539226137486344e-04  5.6547649651666565e-04  5.6549213600731848e-04  5.8092021921341507e-04  5.6234014286551438e-04  8.5437288365680771e-08  8.0280960946334792e-08  5.6536830434211500e-04  5.5876725505169108e-04  2.7358657051184391e-08  5.6351306503555601e-04  7.5571746096754709e-08  7.4958516050645590e-08  8.2744315298235067e-08  4.1393974935163325e-06  3.8731803729920018e-04  9.4072294931951499e-04  6.7004266487045246e-04  8.6471632303000798e-04  9.7856016594840460e-04  5.6549256674532570e-04  6.8353496930192276e-04  5.4593266739573433e-04  1.3787668880960868e-04  4.5730708897032834e-04  7.5178883999132152e-08  6.2383786158662355e-07  6.8929387881506163e-04  1.0062612411112393e-03  5.6224615388557775e-04  3.4470397657009455e-06  6.0845356983839978e-04  1.0226775225152911e-03  2.1164681921056177e-03  1.7032046644049363e-03  2.8168997226455950e-04  1.1088721765303831e-07  1.6514885330764634e-03  6.1500515175921041e-04  5.6530336840703954e-04  1.2665392169032214e-03  2.6419177825639382e-05  5.9758157891320147e-04  5.6556158823335646e-04  5.6549403513754916e-04  5.6553611789825783e-04  5.6583592132504142e-04  7.7697867200172434e-04  1.6914791731260424e-03  3.8972956848868409e-06  1.2777997782666862e-03  6.6493206847941595e-04  1.9976728970358706e-05  1.9456738966374613e-03  1.9710935881157577e-05  5.6570319559949979e-04  6.5528487471786011e-04  1.4383093264518992e-03  8.2234928734390453e-04  1.2474691765959581e-03  6.0293239679871924e-04  6.8388946552143638e-07  1.6290941758760006e-03  1.6174525577822272e-03  8.1774322540786867e-08  1.1647082296124581e-06  1.6188379423266290e-03  4.6549280448755717e-07  1.1837557624103458e-07  9.6912223907888678e-04  8.9036113168015519e-05  4.3669929435378795e-04  2.7910880411110824e-04  4.9125133968272547e-04  1.5945735308133181e-04  5.8218829274969859e-04  5.9074453309006952e-04  1.0632879925046564e-03  1.7351764178947737e-04  1.0247984867581875e-04  1.3925746288269658e-04  7.0561758075253468e-05  5.6660263929686711e-04  5.6550273631558138e-04  7.6641215794402706e-04  5.6836537582463989e-04  7.8122860033594114e-05  5.6577389588147100e-04  5.6545736796654526e-04  7.2816018810901897e-04  1.6245818372965327e-04  4.2205253110215436e-07  1.4946762051518476e-07  5.6516644014203130e-04  7.4358624736338788e-04  5.6681179854638295e-04  5.7102993013705291e-04  5.6671727589844255e-04  7.5857037239567091e-04  7.8782102661529102e-08  6.0745948385011999e-04  6.3664787973708847e-04  5.6469797089801223e-04  5.6474150194475139e-04  5.6411832174150687e-04  9.0668224399145347e-04  8.1070998841687673e-04  8.8168360006252117e-08  1.1425766218364794e-04  1.1163855597423378e-07  4.5189918244389329e-05  9.0865860824760226e-04  7.8754893719725893e-04  5.7007356588712420e-04  5.2713968860935816e-04  7.9912261653550732e-08  1.0057981323406907e-03  8.6005977989073628e-08  1.0254137394567859e-03  1.7255140974582067e-03  8.0551302854175872e-08  1.0646125161097911e-03  1.1825695884063894e-03  3.5827452172951740e-04  1.5750551117488137e-07  5.6038043358051456e-04  5.7933573783467990e-04  1.3607297993866879e-03  7.8220272141083620e-04  6.1036741609865781e-04  1.2350396041608952e-03  1.2326512057558388e-03  5.8123594355717525e-04  7.7246773755020632e-08  3.0870366725762847e-06  1.2345886894266453e-03  6.3402483489365981e-04  6.2170338886284170e-04  5.6404001952314821e-04  5.6120889011347208e-04  9.4007128582409800e-08  5.6016752183981331e-04  2.1264504835787229e-07  7.7816829589739307e-08  1.1361670711900543e-03  5.6510980378380649e-04  8.2330072175488412e-08  1.0147319559288218e-03  7.9340329368128324e-08  1.1343256805914749e-03  5.6354669993210137e-04  5.6437612097780319e-04  5.6483469805621066e-04  5.6326187390923351e-04  2.8765176695857