<?xml version="1.0"?>
<VTKFile type="UnstructuredGrid"  version="0.1"  >
<UnstructuredGrid>
<Piece  NumberOfPoints="6486" NumberOfCells="12696">
<Points>
<DataArray  type="Float64"  NumberOfComponents="3"  format="ascii">0 2.5 0  0 0 0  2.5 0 0  2.5 2.5 0  1.25 0 0  2.5 1.25 0  1.25 2.5 0  0 1.25 0  1.25 1.25 0  0 0.625 0  0.625 0 0  0.625 2.5 0  0 1.875 0  2.5 0.625 0  1.875 0 0  2.5 1.875 0  1.875 2.5 0  1.770833333333333 0.7291666666666666 0  0.7291666666666666 1.770833333333333 0  0.9375 0.625 0  1.875 1.5625 0  0.642361111111111 1.163194444444444 0  1.341594827586207 1.883979885057471 0  0.46875 0.46875 0  2.03125 2.03125 0  0.3626104797979798 1.513178661616162 0  1.381740196078431 0.4564950980392157 0  0.9375 2.172619047619047 0  2.172619047619047 0.9375 0  2.096354166666667 0.4036458333333332 0  0.4036458333333333 2.096354166666667 0  1.684027777777778 1.163194444444444 0  0.3418803418803419 0.8693910256410255 0  1.642742622813391 2.162164207604464 0  1.275619849389031 0.8465650753054845 0  0.9136284722222221 1.434461805555556 0  1.732437511238546 0.3406962303960658 0  0.9714402568595876 1.029779313093998 0  1.52281746031746 1.485615079365079 0  2.1875 1.71875 0  1.06819722569879 0.2997236128493951 0  2.136114211309524 1.303478422619048 0  0.3125 0 0  0 0.3125 0  2.5 2.1875 0  2.1875 2.5 0  0.3200021620376328 1.192323085056694 0  0.6738456129277992 0.8304377375553881 0  1.757891808928991 1.861952730357003 0  1.5625 0 0  0.9375 0 0  0.3125 2.5 0  2.1875 0 0  2.5 0.9375 0  0 0.9375 0  0 1.5625 0  0.9375 2.5 0  2.5 0.3125 0  0 2.1875 0  1.5625 2.5 0  2.5 1.5625 0  0.7448220909826522 0.3003573636608841 0  1.027298850574712 1.871151477832512 0  1.331260495098891 2.197262878816185 0  1.207917681892289 1.582765010956622 0  0.4339993447432606 1.801186844743261 0  0.6337298768939392 1.443093039772727 0  2.049851190476191 0.6826636904761904 0  0.6584821428571428 2.219122023809524 0  1.89575676467455 0.9798457973793544 0  1.437570562095628 1.059380588255917 0  1.502090052505845 0.6987070896496241 0  0.2040860661083546 1.705323965099331 0  0.2083333333333333 0.46875 0  0.5070952039991439 0.2211150679997147 0  0.6916302856529919 0.5813591430410241 0  2.265625 1.953125 0  2.2265625 2.2265625 0  1.886424081252096 2.243391360417365 0  1.40625 0.202164758520858 0  0.2269345238095238 0.2269345238095238 0  1.152730869673694 0.5225850378741401 0  1.885631899587912 1.312095130148776 0  1.614808884009367 0.9049784971014416 0  1.890095442220658 0.5126535558463003 0  2.323168682795699 0.46875 0  2.268811725689575 0.2304742875213018 0  0.6002389442105756 1.967426444210576 0  0.1768313172043011 2.03125 0  0.2311882743104251 2.269525712478698 0  2.03125 0.176831317204301 0  2.280262553344767 0.6954945504579233 0  1.979219539285994 1.809922269642997 0  2.336309523809524 1.09375 0  1.09375 2.336309523809524 0  0.9314042474388009 1.662973812215543 0  0.1634067999087722 1.40625 0  2.337090640094896 1.40625 0  1.141616997467638 2.069311773587991 0  0.46875 2.338939559681489 0  1.542440307908715 1.734944797244472 0  1.556713687786879 1.956977865354753 0  0.8264238995344066 1.975424467820646 0  1.466326331454725 1.275271369760862 0  1.655675324257095 0.5444159974393489 0  0.3385416666666666 0.6479255698005697 0  0 0.78125 0  0.5236073939200119 0.984090461540625 0  2.091665741047893 1.519793517904215 0  1.71875 2.5 0  0.5356538886262603 1.623137930505009 0  0 1.09375 0  0.1932884281517095 1.015625 0  0.8569313582417669 1.2198915584249 0  0.8876981284879677 0.8329884081524883 0  1.115618488474214 0.7219586973356271 0  1.186950366204949 1.043465130075318 0  2.057459118787237 1.110823087309335 0  1.830651283878689 2.049810069572418 0  1.689107969301489 1.367247437031697 0  0.4921048768039656 1.298643370653124 0  0.8213975694444444 2.336309523809524 0  2.03125 2.5 0  1.049729400480002 1.283723261332814 0  1.308101375801673 0.6489479469700392 0  2.5 2.34375 0  0.4968777175037714 0.7562964879736076 0  1.40625 2.5 0  1.501347663534097 2.307027627307738 0  1.602813712048603 0.1926218191360736 0  0.8393082906308107 0.463778306132633 0  1.682663349152719 1.598471865581041 0  0.7774174680851571 1.560004941327907 0  1.554204170364662 0.3898593897892066 0  1.842184459051087 0.186443880058197 0  1.358107417651776 1.696381759610015 0  1.18859291992392 1.77598670078022 0  0.1875331222687418 0.7609599743339348 0  1.339536743965101 1.422080365801479 0  0.7788179348750389 0.9955343414928611 0  0.9062978492805438 0.1919636509126373 0  1.256007360640958 0.3160320559396114 0  1.09375 0 0  1.174986727221844 0.1594990293443933 0  2.34375 1.796875 0  2.318026474511116 1.589177949022232 0  2.34375 2.5 0  1.672742954892153 2.332882724550692 0  0.2683637361947215 1.874801596909639 0  2.174770749820102 0.5581009131310781 0  1.443279522965991 0.8870068372898454 0  0.3385416666666667 0.3571428571428572 0  0.78125 0 0  2.060421048269335 2.314363248763811 0  1.088078737088509 0.8967352118723447 0  1.087825368444708 1.454931510884769 0  2.018308232129541 0.8548495425854904 0  1.943987311736842 0.3246298523011434 0  1.71875 0 0  1.85337849796276 1.144833312386208 0  2.3486328125 2.1044921875 0  1.407588788651747 2.042968789119587 0  2.336309523809524 0.865366648092144 0  2.34375 0 0  2.5 0.15625 0  0.15625 2.5 0  0 2.34375 0  0.1638044648294291 1.242263417405867 0  0.356216654757926 1.032569427322806 0  0.3188217956111817 1.355736727000647 0  0.5924956460852111 0.36112522004736 0  0.6594216488965849 0.1603472116132387 0  1.841804599497131 1.72214349266521 0  0.15625 0 0  0 0.15625 0  2.115898634821499 1.894570904464496 0  0.7821877980253907 0.7129993435924866 0  1.003820447087786 0.4516053462784233 0  0.477562948779147 1.138333049293613 0  0.719493678605015 1.305655360135975 0  0.9772457618587566 2.020350128938537 0  0.8764738248887107 1.826219722709673 0  1.254787875123819 2.339010653832026 0  2.343597354852534 1.249982759769001 0  0.78125 2.5 0  0.46875 2.5 0  2.5 1.40625 0  1.09375 2.5 0  2.5 0.78125 0  2.5 1.09375 0  2.03125 0 0  2.5 0.46875 0  1.40625 0 0  0.46875 0 0  0 0.46875 0  0 1.40625 0  0 1.71875 0  0 2.03125 0  2.5 1.71875 0  2.5 2.03125 0  2.005424054645407 1.653223486966518 0  0.1538730573856537 1.559850281736677 0  2.33984375 2.33984375 0  1.166539506212474 1.922878979538754 0  0.3914885633949916 1.65887232812171 0  0.5795503163042564 1.766243562569382 0  0.399533125920212 1.946786875081388 0  0.7866324979014098 2.127719094551316 0  0.3654683023546834 0.1495701132219454 0  0.1527388747131078 0.6116379440619215 0  2.013737577140188 1.391056634712135 0  1.17635437372994 2.213329084238133 0  1.737118141866284 1.010577140843115 0  2.200707118087222 1.164723314085963 0  1.697018908736685 1.993548551451517 0  0.5387621649009668 0.6070503962352419 0  2.032805785855952 0.5330427622570983 0  1.082699501358059 1.667818725183932 0  1.503819781540653 0.5468420196858188 0  2.015409142866072 2.175941657590429 0  1.752057611265444 0.869642097111018 0  0.612251684107783 2.356045720700959 0  1.902817102342857 0.6607642211999982 0  2.159616561739693 0.7867739969338844 0  0.5120038350106624 2.197302352398502 0  1.888200216011548 1.919501662489862 0  1.495909909726654 2.16028358757309 0  0.489139876703609 1.443203008943564 0  0.8819175670410521 0.3301172743913011 0  1.882591144370812 0.8155965192707721 0  1.133979796994841 1.172526771862882 0  2.206217447916667 2.084147135416667 0  2.20361328125 2.36279296875 0  1.395746985657004 1.556054166359645 0  1.704383111516207 1.734750450338683 0  0.9575737847222222 2.36274223823052 0  1.035150984253136 0.1302833343179028 0  1.383966125325753 0.7651479963479179 0  1.64003252158672 0.6824316405528895 0  2.22550785055421 1.487078576356817 0  1.760964431499756 1.48495222505201 0  1.276460980673788 2.004207003584658 0  0.1341477688427096 1.828777507920502 0  1.542261434180652 1.155296658359034 0  1.334627911613854 0.9696897472490321 0  1.30794231473696 1.119420615785191 0  0.7028260459857245 0.4438906910721139 0  1.625757433094055 1.84268057552138 0  0.9818707849053143 1.165603626132254 0  2.0086489901463 1.243134585689553 0  1.934584460420609 2.374094051915812 0  1.798434376789567 2.38671361912528 0  1.206314791201715 1.382064292497919 0  0.6333752893366955 0.7023738550008095 0  0.7796219811205605 1.42573253164258 0  1.564399711917382 1.026040828857629 0  0.3385416666666666 0.4889012896825397 0  0.1041666666666667 0.390625 0  0.989112246382566 1.543537365516289 0  2.025724425454636 0.9846960595520872 0  0.6602885475034063 2.086117390485779 0  1.607130551925032 1.267198646640915 0  0.1317864544877056 0.8896173683400176 0  1.755387840017567 2.230364320056445 0  1.301540702984401 0.1216289692748247 0  1.433170657577442 0.3331052752740999 0  1.500459610550388 0.113513924782439 0  0.6494291520606965 1.029586599619295 0  1.010146149868299 0.794897284196169 0  0.3700844198238017 2.235390157870766 0  0.3360891767780704 2.36656279435396 0  1.876856241037701 1.437150669863757 0  1.778674102957329 1.245979347269706 0  0.5472829890977179 0.1005517127039925 0  0.4669074189005698 0.3416784232954367 0  1.472765289289269 1.850899166481903 0  1.555853593327178 1.608452097912802 0  0.6708955559113426 1.646561631116984 0  0.8164699620322933 0.5924479455478063 0  0.3167738989468366 1.758696809749795 0  0.2788007305565096 1.605499483471246 0  0.7821720982350511 0.181524936294752 0  1.376812251214195 2.313340247908297 0  1.785652202614777 0.5962261755537186 0  1.761467296310972 0.4679567244718574 0  2.2265625 1.8359375 0  2.3828125 1.9140625 0  0.5279531607054191 2.071552361614785 0  2.397573269551114 0.234375 0  2.383578172599618 0.3589298466020009 0  0.1024267304488855 2.265625 0  0.1164218274003825 2.141070153397999 0  0.2696857594953064 2.135405441512016 0  2.164961300137334 0.1375322943529536 0  2.137757548369486 0.2724194778647587 0  2.238873711826398 0.3626419179496562 0  0.1001414910226386 0.234375 0  0.2176339285714286 0.3478422619047619 0  0.2503620791333544 0.1061694061057066 0  2.336445461915368 0.1250451055247424 0  0.2154004640409726 2.3918124
[...]
<PointData  Scalars="f_124-1"> 
<DataArray  type="Float64"  Name="f_124-1"  format="ascii">4.9164993992696160e-06  1.6602682969542213e-03  4.9665682677148988e-09  2.2495136974759638e-09  4.2338645039020461e-04  7.8471838124033732e-08  4.2493597018550338e-06  4.0597187628944494e-02  1.4541578252100640e-02  6.3387994269325343e-02  1.6612427191004576e-03  5.8879354770172234e-06  2.2889067309932484e-03  2.2473951889296272e-09  6.2240186747165795e-06  9.7937546223240014e-08  4.4202690131949450e-07  3.9207771734803367e-05  4.7680294922722638e-03  8.9086926358729768e-03  2.4503321797566451e-04  4.4768214661335765e-02  1.1913361744661267e-03  3.4843847798035558e-02  8.4305912092440488e-06  1.8646835961533669e-02  2.9644927041757370e-04  1.7641739508237556e-04  1.2667413911787345e-06  4.8107055820243957e-07  3.8415596253883245e-04  9.7907342480890941e-04  6.0279242456754152e-02  4.2207880808367619e-05  4.8056121952065314e-03  2.1929370329236694e-02  2.0116370947215773e-05  3.0507822245335329e-02  3.2675821821569742e-03  7.0228735347877119e-06  8.8104056457364416e-04  1.4432136864625129e-05  2.0316364145781972e-03  4.0204745656957752e-02  2.4429700115878691e-08  3.8282385421978704e-08  4.3659037725814503e-02  4.6055545844684104e-02  1.8689859510510247e-04  7.3500571860703605e-05  1.0703713028542938e-03  4.4826031542490729e-06  2.0879561953719910e-07  9.3605799114398768e-09  5.7335388022467251e-02  1.5670181988082493e-02  4.6531034419106981e-06  2.6687047052430863e-09  1.4907383188221649e-04  1.8907822092616056e-06  1.7204039407164236e-07  2.4057017382322697e-03  2.0844362724901002e-03  8.3868405425607668e-05  8.1176557868900528e-03  4.3008303800545246e-03  2.3158377292000619e-02  1.2860878595587520e-06  1.1007898362328894e-04  5.4658220659668960e-05  4.4155939237659923e-03  3.8848810228911434e-04  7.7319080424969426e-03  6.1048043385777892e-02  4.5268004172374365e-03  2.2320002212199253e-02  1.1464380583433365e-06  3.1197264943444779e-07  4.4530023541959791e-06  2.0381498177223474e-04  2.5654196311711012e-02  1.2731510711665010e-03  2.1544753033522659e-04  6.0192084111875281e-04  5.1439034191309706e-06  2.2691852500797147e-08  5.7820418685217558e-08  1.2241198945278620e-03  6.5709933694028965e-04  6.0447142300384494e-05  1.0915580433330023e-06  6.1923787749211058e-08  4.2819395085997343e-05  3.3410538686769061e-07  2.7983403422477197e-05  8.0223223981517218e-03  2.7783948894470445e-02  1.2446926275734538e-06  3.8924213967795132e-04  3.2068591615000491e-05  1.2846331568044142e-03  3.1250191550974085e-04  1.1108693009258327e-03  5.3116471015040500e-03  5.4219108637597938e-05  6.0790066322391603e-02  6.1380756822524890e-02  5.5028598814682667e-02  2.7288934821661419e-05  1.0777205708262543e-06  1.1020485346670245e-02  5.0469888268774327e-02  5.4100994459567529e-02  3.6150660731229009e-02  2.6546740619035725e-02  5.8872810658741571e-03  1.5362393874220502e-02  1.6972502188498193e-05  3.1924804787248278e-05  1.2450752957962703e-03  3.4935895128831801e-02  3.0920932997182099e-05  1.5195262695847655e-07  2.3439041660699166e-02  1.0940780405457012e-03  7.9802073071348406e-09  5.6054413979012827e-02  2.9979565047611765e-06  1.7546898950738153e-05  5.6071060137912756e-05  4.9972681464808318e-03  9.2765842828803594e-04  1.3823777266244007e-02  9.2599665944647367e-05  6.8972003651734971e-06  3.3807153322909771e-03  3.2613982038427729e-03  6.2434193379139163e-02  8.6320848548879330e-03  4.3954196584318352e-02  1.1730425204416032e-03  4.5861868654621673e-04  7.2838226186939939e-04  6.0615977205945575e-04  8.4409107589016780e-07  1.7569695901403073e-06  9.4799798553706212e-09  7.0485366165675174e-06  2.5824543960260567e-03  1.8063861317543498e-07  2.0024760066623885e-03  3.8860728709899435e-02  1.3665020897416472e-03  6.1625109222610546e-07  1.5479318555390616e-02  1.5873467852114888e-02  5.3418948351903466e-06  2.6489747336239572e-06  2.4509828786994019e-05  1.9011719507900970e-04  2.0303271411278546e-07  2.7580403303397474e-04  6.1386884297511980e-08  3.4148068633610460e-08  3.9108620346680594e-09  4.7909143784032779e-06  2.3421504585040537e-05  4.0273710889610251e-02  5.4179234117719695e-02  3.1027632949101699e-02  9.3982807176660674e-03  1.7605406322219216e-03  1.8874144861264625e-04  1.5107363342623974e-03  1.4777528497282873e-02  7.5582024821027589e-06  2.5847138924254484e-02  1.9224209624018869e-03  4.7992535657149026e-02  3.3671473171340366e-02  7.2211523649740809e-04  3.2005730519245137e-03  2.3693702895398625e-05  6.6620379558262269e-07  4.9688875810949318e-06  4.7983403449377460e-06  1.4207828395871538e-07  4.5555426664683934e-06  3.7071075599670533e-09  3.1104848389774259e-08  1.3283826120139871e-06  2.0742934173921653e-09  1.8295219171654653e-04  1.9504194814447091e-03  6.1393696681243115e-02  2.8280421787713266e-02  7.0188741179546222e-03  7.0795002197415226e-04  1.5284778532179989e-07  5.1742701817618394e-08  5.6702057753992419e-05  1.5725073338209276e-02  4.0210498010030108e-08  1.2503924380726393e-03  1.0143194329629988e-02  4.9484984929155347e-03  1.4963810081864829e-03  2.8416147210848230e-04  5.4114654315409461e-03  6.4331298185687197e-02  6.5389180668837970e-05  1.0317521830430531e-04  3.3824077218533511e-04  3.1998398951685259e-06  1.2195805503903680e-04  4.2119974195098317e-02  1.1244232086324241e-06  6.9578720061700744e-03  1.6671540665628919e-04  2.9877767307278890e-06  1.2629439142090859e-04  2.4722529683933340e-05  6.7670657111456700e-06  5.1265247113918630e-07  1.4763069976168118e-04  5.1839030464857955e-05  7.4746351345283724e-05  2.3351608296498079e-02  1.6880827547684869e-03  1.8356412754383317e-05  2.1124961501200676e-02  1.0350561998063547e-06  1.0325458150576845e-07  4.8308259072904489e-03  4.7437587449368864e-04  2.0545205099188454e-05  8.9578379893758280e-04  1.4653666319928019e-03  1.0154500626119525e-04  6.1827438783553467e-06  7.0697276709127423e-04  5.6053156359786929e-04  3.6563899856273318e-03  2.8004670243853272e-03  5.8281197249437072e-03  1.0190149103008367e-02  9.6923750299925688e-03  4.8016908656100209e-04  3.0637259862243953e-02  5.5628600067135138e-05  9.6418981871733519e-07  1.9996739250481084e-06  1.4326247627529298e-02  4.0952461640479901e-02  2.3660020786928349e-02  1.6555456066805472e-03  5.3147147905342799e-02  5.1211916193520036e-02  1.3626264316980392e-02  1.1398657353685235e-05  4.0793943056221805e-04  2.1950593980163352e-03  5.9133519657434956e-02  1.2830445480996258e-05  3.4535198258192016e-04  1.9347143460024305e-04  1.1086911818645778e-04  5.0374867239382316e-02  1.4670991942786836e-02  9.9819222490836994e-05  1.9941551492629912e-05  2.5685836606547069e-04  5.3248834330854480e-04  1.9092201297352144e-03  1.7984445541693130e-02  9.2696134002752438e-04  1.8839637685766390e-03  9.3013677999456406e-03  1.3906508877903404e-02  5.6961454137154600e-03  1.3105785592869691e-02  1.4690765392309313e-03  2.2655145274667159e-05  1.8998891418951346e-05  1.7760073061419530e-05  3.2433187875059629e-06  3.3061849243240996e-07  5.0704920425115665e-04  9.5297021269137234e-09  1.0939861710460574e-08  6.7741484163294296e-05  2.5965900496335728e-04  2.7166718354264117e-04  2.4288868713359306e-07  3.0518631650928144e-07  8.5677678337993017e-08  2.6247487451726524e-02  4.5439657657547872e-02  6.3905052701111725e-03  2.7431995261445020e-08  1.4909285827065450e-05  1.0448358021763107e-04  9.8079858316089934e-03  2.2502893785611974e-05  3.8696769741422433e-03  7.5052975233375801e-04  6.4716904094930044e-04  1.0411235351382323e-03  1.6213796463825628e-03  4.3203855884247376e-02  1.4402614616518771e-03  3.2019595935234971e-06  1.3080003323902727e-08  1.6245135478550187e-08  5.9568529906746012e-08  2.1888430443630758e-02  1.9690223929394609e-03  2.2041197224398315e-03  6.1206324392897103e-04  9.6178424102252743e-06  3.4904522087288365e-03  7.5538140318704688e-06  5.8358641563376439e-02  7.5750574653584320e-03  4.2258662364219185e-03  2.7421396416500212e-07  1.2448596811335973e-03  1.3819572151099372e-06  2.0149439550034537e-04  4.7194376543193264e-02  6.7481357682273252e-08  6.2901393458031377e-02  3.6964131715203977e-02  2.1939509883169823e-05  2.1265827231966162e-05  1.8482702433685643e-06  1.0284423781328648e-05  2.3201505923877680e-02  3.4631984120003789e-02  4.0610629821344303e-07  3.3754784464631107e-06  3.8954481247173975e-02  4.2710469965480428e-05  1.8359630811886325e-04  1.0161092340542280e-05  1.1945351509260701e-05  4.5054320635814204e-07  1.1615005719519567e-04  6.4746578599614310e-03  1.4191131450282498e-05  2.8680799507837518e-02  6.2309826518479709e-02  5.1334014116691563e-02  6.2111812807569458e-02  4.4194726463005160e-05  1.1010791654025832e-02  4.5375717233730815e-02  2.9699038130122288e-07  1.4522934204462078e-07  7.6234707402330434e-06  1.3314988013149913e-05  8.2181417969216210e-09  9.1905304767876241e-05  1.7582299708382287e-05  3.8600051725076740e-04  1.4573564842268820e-07  1.0086806876864633e-04  4.3404423863054112e-05  4.7970971706696135e-04  1.5615359635352739e-03  9.6828420083836832e-03  2.2337145779461408e-02  1.4957623597528440e-02  1.2720549569106076e-06  2.6142253649349633e-03  2.5280771837531538e-02  1.0573175808775478e-02  4.9437908322900289e-06  5.2694005696529378e-02  1.8214114546327619e-02  3.5080256041976413e-02  2.4849718879458253e-02  4.7417127988437836e-06  3.0140121994253793e-02  3.7675992710950084e-03  1.0715485234902502e-02  9.8437114141727475e-04  2.8663066014334750e-04  3.0478876676331183e-07  1.5302921982575508e-02  5.1466473520203994e-04  3.4095212670932525e-03  9.7553324643171740e-05  5.8892234909059038e-02  3.5206074937238159e-02  2.7330886654651570e-06  5.5937285512596300e-03  4.5192934881273243e-05  1.9425115806385838e-06  2.1901315298058475e-02  6.4982251764270360e-02  5.5274424636951265e-02  4.5615033347148315e-05  4.8519643350190872e-06  7.7560396932392518e-03  1.4092145278615162e-05  6.1275072460742869e-06  1.4792019288739480e-02  5.4621971307965124e-02  1.1798284416332113e-08  2.0737116704079846e-03  3.3471570774063720e-03  7.6637453205134418e-03  1.4187490396992884e-07  7.3161247426554209e-03  1.5692304982115528e-02  5.0897095038272822e-04  5.4529357559187572e-02  5.0081969917436783e-02  5.2466106676114432e-06  1.8672254363401690e-02  5.9309096641335863e-04  9.7720379983464418e-05  2.8308297139552811e-05  2.9324312454337746e-02  4.1024530453726490e-02  2.7442390826632923e-03  4.2102815365718853e-04  8.4759141317419930e-05  2.1731947962136095e-05  1.5009433250927581e-03  1.1800832112553561e-02  1.0778733457213883e-05  4.7063066416873039e-05  9.7902498523263545e-07  4.2769800479359245e-04  8.6052157107272941e-04  2.0307173283347699e-04  1.7473988280058896e-04  1.4611805718243811e-03  5.5302871104719045e-08  6.6126962743794466e-03  2.1855911007247406e-02  9.5422324705132233e-06  2.8477856484036004e-08  4.6777318792831375e-02  1.0089136817040163e-03  6.4080093751567454e-04  1.1121960693745976e-03  8.8325005423151558e-08  5.5820371060446667e-03  5.0277879760695102e-02  4.4824507341301738e-05  3.2309400503291754e-07  2.8320796795461777e-07  4.2859650605565904e-06  9.1434709705633891e-03  5.9984271916205610e-02  1.8349420500875700e-02  6.1285486215798532e-02  1.8194160087321616e-03  1.1835010069392750e-04  3.7605906518754881e-02  5.2453963531861759e-07  7.4816407293429396e-07  2.9242452542003715e-02  5.8532136269995547e-05  5.7143366373168442e-02  8.7753063156425278e-05  6.3551860310167796e-02  2.6591945305519628e-06  3.9420049406222509e-03  6.4775640106706457e-03  6.3572155202237010e-04  3.2250118704053870e-04  3.0150926388002031e-04  2.5027107377996191e-03  1.6545364143761049e-03  5.5467823270979755e-03  2.7297541691720401e-03  4.4577397651331509e-06  1.6718169912659422e-06  3.6229552680275237e-07  5.7086503859934937e-05  4.3200915383840660e-02  1.4587067804878134e-06  1.1428071467764180e-02  7.8984520106020490e-04  4.0373797509952833e-02  2.6064540655192960e-04  1.7752293326735575e-02  1.6768887500271309e-04  2.1624513613567036e-05  1.4674100061864278e-03  5.5089445100946562e-09  1.5934908312189381e-06  1.3582103990044753e-04  1.2208928483702712e-05  1.9795281949079226e-03  2.9321358100236487e-06  2.2138160955159061e-06  1.4643080550808399e-03  1.5740162515185192e-02  2.0306291586798682e-03  1.9407685736748377e-09  6.7084149010159435e-09  1.1419344094619963e-05  1.0631423358629846e-03  3.3468275406258524e-03  4.5501206366766016e-03  1.1657856541924915e-04  3.9092250517434415e-07  1.2563963202860116e-03  1.9507566934983962e-04  3.7654340493053799e-03  5.3462269562750762e-02  5.3361228761236401e-05  4.1483802427573178e-03  1.0718316096626252e-03  1.0982118974539739e-05  1.3562718354672903e-05  7.1970513010556527e-04  1.5286342156005247e-03  1.0594202472353527e-02  6.8225247388794409e-08  1.2946082756184021e-04  2.1649570678308233e-03  4.0807675708629188e-04  1.6246970384505149e-04  1.5066894417779979e-04  6.9728460895407613e-04  9.5063573759558888e-06  5.2539419698476526e-07  4.9045948068701043e-04  2.8744573984468923e-09  3.5688921626110678e-06  1.6967732919683213e-06  1.7384502003618879e-05  2.6729905781160139e-07  1.0284932632562378e-06  4.0384184754998905e-07  4.6506739904059565e-09  1.9412041471046488e-04  3.8641908928655677e-07  4.9451697446377535e-02  4.9291767532553384e-02  7.1663698837040200e-04  1.7867837307618761e-05  2.3557431946603214e-06  1.1385808918254268e-03  6.6946903173407738e-08  3.4920385322646329e-07  3.5934562097011597e-03  3.3701590568963524e-03  3.0547009552554500e-08  1.5093209864655720e-04  5.3014641106989340e-03  2.1664103504779415e-03  7.3710570108460207e-05  4.3223807024741206e-05  8.4550058236263427e-08  3.5388843210314005e-02  5.3340756198517449e-02  3.4854036604502994e-02  2.1153475557161936e-03  9.1589671011073340e-09  6.0052263145697995e-04  5.9535876424434628e-02  7.5592073526075851e-09  3.2580714285020037e-05  1.0631549349901062e-04  4.3143704588599227e-05  1.2915868831597059e-04  2.1054240131017602e-08  3.1172869632491397e-03  4.7448862094507811e-06  1.1581954196136429e-07  6.1358308304845795e-02  1.7225669718563170e-02  4.1270252069424704e-03  2.1529716272247861e-06  2.0937355326943172e-08  4.4953209736761229e-03  2.3723249293552699e-04  2.2576633014229821e-03  2.6157534783667722e-04  7.3019380237663921e-08  1.2449568773839360e-02  5.5887705067268763e-02  2.9872705774961282e-02  7.3044045593093001e-04  3.6801860762237321e-02  9.9137106812491431e-03  1.2762821356461632e-03  4.1510967320528281e-06  3.9603447014785966e-05  1.7608640438692688e-02  3.1198565259826821e-02  5.4394507017348570e-03  1.6971763315340692e-03  2.1637151736228839e-03  2.0644867573886845e-02  7.7088946693762948e-03  8.6003744366872632e-08  1.7101649258507925e-08  1.0536203939885790e-02  1.7466968908849589e-02  6.8510220115589283e-03  2.4586133217166340e-02  4.0093351385667990e-02  2.4840837041733676e-04  7.8318740598227787e-07  9.1453412150770933e-04  3.0554272987164502e-06  6.6294235846783023e-08  5.4602967793953648e-07  6.2872972432204881e-04  1.1412089180758998e-06  1.1154157467304845e-02  1.7953795816400320e-05  8.8360309878407267e-04  4.2040615084314472e-05  2.5312387548564059e-05  1.6265931179430537e-03  2.5664610087052253e-03  7.1780676351290933e-06  2.8374357730418366e-04  1.0660683129133855e-07  1.9333555051844122e-02  3.0910062674422746e-04  4.7245458626975691e-09  2.8379097563509467e-02  3.7034665447182764e-02  3.3099252564564258e-04  4.2641310265693970e-05  1.0609878062915287e-02  9.9737233383372938e-04  2.9177153126139317e-07  2.7668305239756229e-03  1.4247652714946330e-07  9.8689083488952502e-07  9.9019860127693132e-04  5.7588262862284978e-06  5.8190832209398836e-02  8.5279733856332175e-03  2.1061344400160248e-04  5.7664792316121859e-04  2.5227487640329927e-03  9.6060888317252356e-06  2.2512204446436808e-05  2.0264794926454647e-03  2.8420463820002038e-02  1.7739574690770537e-03  1.1275675953817670e-04  9.7206915717541587e-07  2.0831101426675351e-07  3.0549267549711862e-04  4.0484366359836779e-02  6.2027128115560457e-06  4.2149260172667407e-07  5.6059835592391321e-04  1.7721164150729473e-08  4.9672775804951783e-06  8.2233251081782053e-08  1.0218689731467835e-05  5.0875632613918551e-06  3.4549914222309702e-06  1.0994109913423570e-02  5.4865440575518411e-06  1.8097521024635698e-07  1.1743521679207280e-05  4.3940030086802146e-05  5.0802765059981595e-08  1.0702236136644296e-07  1.6211860889646206e-07  5.4228135357082971e-02  4.5674624745019932e-02  3.4973813512776966e-02  4.4667240882103209e-06  6.2840014512107328e-02  1.2183171253251082e-03  2.9917230718140593e-06  1.3626565307577549e-03  4.6140303958193939e-06  1.8779439206387490e-03  5.8236717107428448e-05  3.0773383484532665e-09  1.8274160392723238e-03  1.2414438860489007e-04  2.8028660995182003e-02  5.1239041551856226e-02  6.9552567217277620e-07  1.3971949881052202e-08  4.2123981718336253e-09  4.1535397210890822e-09  2.1107596274654424e-02  2.2611232115182074e-06  6.3558961685222556e-02  1.3306530827780808e-07  3.8457919977422383e-08  2.3064531472351176e-09  9.8557414885571487e-06  1.0096687985947093e-04  9.4396237385404990e-03  1.0481051751576447e-05  2.8976771923877560e-04  9.6682776810974605e-06  2.8590857799668291e-02  4.9968026431642359e-02  4.0358569552247890e-02  2.9701600979581255e-06  2.0787483631874628e-03  4.0300540382680231e-02  6.4094375633436770e-02  7.9641792466632712e-04  3.6017539460553034e-02  2.1572283144578900e-03  3.8377305951528415e-04  2.2254992688889960e-02  1.6201090727348169e-02  1.1978446455897292e-02  3.3671281159433526e-02  6.3488752299489706e-02  6.4223307115089556e-02  1.1974175643914715e-06  5.4834396035889990e-04  1.2629746184369696e-03  6.6240593675913293e-06  4.8137788920754349e-02  3.9931591856456056e-07  1.7607345465097048e-02  5.0589177680748938e-04  2.5631923580610678e-02  5.7823156996816276e-02  6.1465370682808988e-03  9.0756170567916623e-04  2.1359367591285608e-04  4.6577748510461349e-02  3.6511343927450902e-02  3.5105701386793765e-06  3.5179662270974176e-07  5.6096201352433171e-02  9.0117269540521622e-07  1.7457378463701631e-07  1.9958960217048311e-02  6.8157567966228632e-04  1.4516699263345187e-02  7.6810963863574281e-04  1.7822116661259831e-02  3.9091201048903177e-06  8.2307646353879712e-03  6.0318258159394386e-03  7.2881978896583268e-05  1.5079915231514199e-04  9.9486922870402306e-05  3.8434470036158675e-05  3.9657674520777520e-05  2.2798895782973880e-04  2.8315800271643179e-02  4.0518554096384909e-04  4.6418596712768292e-03  2.6143269064475166e-03  2.6373277245944908e-03  2.0072946216628503e-03  1.2492156275399676e-05  2.5645190425788752e-03  1.6451436789398527e-05  7.9243633275301109e-06  5.2771451944800933e-04  7.3415592239574161e-04  1.3889978768098086e-02  1.1558143551905022e-02  6.8254927552638314e-03  1.6553175715587374e-02  1.9772025477243594e-07  6.3293783328506381e-05  4.9511280181218837e-05  1.1961919545359752e-04  1.7863001467206940e-04  8.0294438386633175e-05  1.2153928733103361e-05  2.5786653209028594e-03  1.6075934999871481e-04  4.9909770602595347e-06  1.8049658443603257e-08  8.1742586439636023e-06  5.4788637933949830e-03  2.3739812745912695e-02  4.2410219345180786e-02  2.1598088803815307e-03  1.5364056118189256e-06  2.6370789501401683e-02  2.9833703509021174e-04  5.0686050730773808e-06  5.9316639724136408e-02  4.3341117729086390e-06  4.6533598133945048e-06  4.2720601356698507e-06  1.6569998020493919e-07  6.7117686791811677e-07  9.5608116177114248e-06  2.3649878275032482e-02  4.2735586157335945e-03  8.0219424148360845e-03  3.4969891159664965e-02  1.7896655574458731e-04  6.1414190131529124e-05  3.1406204570319264e-03  2.6423173190329908e-08  7.8531185231905487e-04  7.9043197948992835e-03  2.3188690030124220e-02  2.8891307580482729e-02  5.5848036571228757e-05  1.1271824208866234e-05  2.4682581400787956e-06  8.1900605666171610e-06  3.3332841842964740e-06  5.1532673161439147e-08  2.5729230362603981e-07  3.2261383321819813e-04  7.4469351129767712e-05  9.3214162023753115e-08  5.5538959857093353e-07  3.4053734993051655e-04  5.0641231389525452e-05  1.1477111387129143e-04  2.2975214432706403e-04  4.1891616216855452e-05  6.85832431759