<?xml version="1.0"?>
<VTKFile type="UnstructuredGrid"  version="0.1"  >
<UnstructuredGrid>
<Piece  NumberOfPoints="6486" NumberOfCells="12696">
<Points>
<DataArray  type="Float64"  NumberOfComponents="3"  format="ascii">0 2.5 0  0 0 0  2.5 0 0  2.5 2.5 0  1.25 0 0  2.5 1.25 0  1.25 2.5 0  0 1.25 0  1.25 1.25 0  0 0.625 0  0.625 0 0  0.625 2.5 0  0 1.875 0  2.5 0.625 0  1.875 0 0  2.5 1.875 0  1.875 2.5 0  1.770833333333333 0.7291666666666666 0  0.7291666666666666 1.770833333333333 0  0.9375 0.625 0  1.875 1.5625 0  0.642361111111111 1.163194444444444 0  1.341594827586207 1.883979885057471 0  0.46875 0.46875 0  2.03125 2.03125 0  0.3626104797979798 1.513178661616162 0  1.381740196078431 0.4564950980392157 0  0.9375 2.172619047619047 0  2.172619047619047 0.9375 0  2.096354166666667 0.4036458333333332 0  0.4036458333333333 2.096354166666667 0  1.684027777777778 1.163194444444444 0  0.3418803418803419 0.8693910256410255 0  1.642742622813391 2.162164207604464 0  1.275619849389031 0.8465650753054845 0  0.9136284722222221 1.434461805555556 0  1.732437511238546 0.3406962303960658 0  0.9714402568595876 1.029779313093998 0  1.52281746031746 1.485615079365079 0  2.1875 1.71875 0  1.06819722569879 0.2997236128493951 0  2.136114211309524 1.303478422619048 0  0.3125 0 0  0 0.3125 0  2.5 2.1875 0  2.1875 2.5 0  0.3200021620376328 1.192323085056694 0  0.6738456129277992 0.8304377375553881 0  1.757891808928991 1.861952730357003 0  1.5625 0 0  0.9375 0 0  0.3125 2.5 0  2.1875 0 0  2.5 0.9375 0  0 0.9375 0  0 1.5625 0  0.9375 2.5 0  2.5 0.3125 0  0 2.1875 0  1.5625 2.5 0  2.5 1.5625 0  0.7448220909826522 0.3003573636608841 0  1.027298850574712 1.871151477832512 0  1.331260495098891 2.197262878816185 0  1.207917681892289 1.582765010956622 0  0.4339993447432606 1.801186844743261 0  0.6337298768939392 1.443093039772727 0  2.049851190476191 0.6826636904761904 0  0.6584821428571428 2.219122023809524 0  1.89575676467455 0.9798457973793544 0  1.437570562095628 1.059380588255917 0  1.502090052505845 0.6987070896496241 0  0.2040860661083546 1.705323965099331 0  0.2083333333333333 0.46875 0  0.5070952039991439 0.2211150679997147 0  0.6916302856529919 0.5813591430410241 0  2.265625 1.953125 0  2.2265625 2.2265625 0  1.886424081252096 2.243391360417365 0  1.40625 0.202164758520858 0  0.2269345238095238 0.2269345238095238 0  1.152730869673694 0.5225850378741401 0  1.885631899587912 1.312095130148776 0  1.614808884009367 0.9049784971014416 0  1.890095442220658 0.5126535558463003 0  2.323168682795699 0.46875 0  2.268811725689575 0.2304742875213018 0  0.6002389442105756 1.967426444210576 0  0.1768313172043011 2.03125 0  0.2311882743104251 2.269525712478698 0  2.03125 0.176831317204301 0  2.280262553344767 0.6954945504579233 0  1.979219539285994 1.809922269642997 0  2.336309523809524 1.09375 0  1.09375 2.336309523809524 0  0.9314042474388009 1.662973812215543 0  0.1634067999087722 1.40625 0  2.337090640094896 1.40625 0  1.141616997467638 2.069311773587991 0  0.46875 2.338939559681489 0  1.542440307908715 1.734944797244472 0  1.556713687786879 1.956977865354753 0  0.8264238995344066 1.975424467820646 0  1.466326331454725 1.275271369760862 0  1.655675324257095 0.5444159974393489 0  0.3385416666666666 0.6479255698005697 0  0 0.78125 0  0.5236073939200119 0.984090461540625 0  2.091665741047893 1.519793517904215 0  1.71875 2.5 0  0.5356538886262603 1.623137930505009 0  0 1.09375 0  0.1932884281517095 1.015625 0  0.8569313582417669 1.2198915584249 0  0.8876981284879677 0.8329884081524883 0  1.115618488474214 0.7219586973356271 0  1.186950366204949 1.043465130075318 0  2.057459118787237 1.110823087309335 0  1.830651283878689 2.049810069572418 0  1.689107969301489 1.367247437031697 0  0.4921048768039656 1.298643370653124 0  0.8213975694444444 2.336309523809524 0  2.03125 2.5 0  1.049729400480002 1.283723261332814 0  1.308101375801673 0.6489479469700392 0  2.5 2.34375 0  0.4968777175037714 0.7562964879736076 0  1.40625 2.5 0  1.501347663534097 2.307027627307738 0  1.602813712048603 0.1926218191360736 0  0.8393082906308107 0.463778306132633 0  1.682663349152719 1.598471865581041 0  0.7774174680851571 1.560004941327907 0  1.554204170364662 0.3898593897892066 0  1.842184459051087 0.186443880058197 0  1.358107417651776 1.696381759610015 0  1.18859291992392 1.77598670078022 0  0.1875331222687418 0.7609599743339348 0  1.339536743965101 1.422080365801479 0  0.7788179348750389 0.9955343414928611 0  0.9062978492805438 0.1919636509126373 0  1.256007360640958 0.3160320559396114 0  1.09375 0 0  1.174986727221844 0.1594990293443933 0  2.34375 1.796875 0  2.318026474511116 1.589177949022232 0  2.34375 2.5 0  1.672742954892153 2.332882724550692 0  0.2683637361947215 1.874801596909639 0  2.174770749820102 0.5581009131310781 0  1.443279522965991 0.8870068372898454 0  0.3385416666666667 0.3571428571428572 0  0.78125 0 0  2.060421048269335 2.314363248763811 0  1.088078737088509 0.8967352118723447 0  1.087825368444708 1.454931510884769 0  2.018308232129541 0.8548495425854904 0  1.943987311736842 0.3246298523011434 0  1.71875 0 0  1.85337849796276 1.144833312386208 0  2.3486328125 2.1044921875 0  1.407588788651747 2.042968789119587 0  2.336309523809524 0.865366648092144 0  2.34375 0 0  2.5 0.15625 0  0.15625 2.5 0  0 2.34375 0  0.1638044648294291 1.242263417405867 0  0.356216654757926 1.032569427322806 0  0.3188217956111817 1.355736727000647 0  0.5924956460852111 0.36112522004736 0  0.6594216488965849 0.1603472116132387 0  1.841804599497131 1.72214349266521 0  0.15625 0 0  0 0.15625 0  2.115898634821499 1.894570904464496 0  0.7821877980253907 0.7129993435924866 0  1.003820447087786 0.4516053462784233 0  0.477562948779147 1.138333049293613 0  0.719493678605015 1.305655360135975 0  0.9772457618587566 2.020350128938537 0  0.8764738248887107 1.826219722709673 0  1.254787875123819 2.339010653832026 0  2.343597354852534 1.249982759769001 0  0.78125 2.5 0  0.46875 2.5 0  2.5 1.40625 0  1.09375 2.5 0  2.5 0.78125 0  2.5 1.09375 0  2.03125 0 0  2.5 0.46875 0  1.40625 0 0  0.46875 0 0  0 0.46875 0  0 1.40625 0  0 1.71875 0  0 2.03125 0  2.5 1.71875 0  2.5 2.03125 0  2.005424054645407 1.653223486966518 0  0.1538730573856537 1.559850281736677 0  2.33984375 2.33984375 0  1.166539506212474 1.922878979538754 0  0.3914885633949916 1.65887232812171 0  0.5795503163042564 1.766243562569382 0  0.399533125920212 1.946786875081388 0  0.7866324979014098 2.127719094551316 0  0.3654683023546834 0.1495701132219454 0  0.1527388747131078 0.6116379440619215 0  2.013737577140188 1.391056634712135 0  1.17635437372994 2.213329084238133 0  1.737118141866284 1.010577140843115 0  2.200707118087222 1.164723314085963 0  1.697018908736685 1.993548551451517 0  0.5387621649009668 0.6070503962352419 0  2.032805785855952 0.5330427622570983 0  1.082699501358059 1.667818725183932 0  1.503819781540653 0.5468420196858188 0  2.015409142866072 2.175941657590429 0  1.752057611265444 0.869642097111018 0  0.612251684107783 2.356045720700959 0  1.902817102342857 0.6607642211999982 0  2.159616561739693 0.7867739969338844 0  0.5120038350106624 2.197302352398502 0  1.888200216011548 1.919501662489862 0  1.495909909726654 2.16028358757309 0  0.489139876703609 1.443203008943564 0  0.8819175670410521 0.3301172743913011 0  1.882591144370812 0.8155965192707721 0  1.133979796994841 1.172526771862882 0  2.206217447916667 2.084147135416667 0  2.20361328125 2.36279296875 0  1.395746985657004 1.556054166359645 0  1.704383111516207 1.734750450338683 0  0.9575737847222222 2.36274223823052 0  1.035150984253136 0.1302833343179028 0  1.383966125325753 0.7651479963479179 0  1.64003252158672 0.6824316405528895 0  2.22550785055421 1.487078576356817 0  1.760964431499756 1.48495222505201 0  1.276460980673788 2.004207003584658 0  0.1341477688427096 1.828777507920502 0  1.542261434180652 1.155296658359034 0  1.334627911613854 0.9696897472490321 0  1.30794231473696 1.119420615785191 0  0.7028260459857245 0.4438906910721139 0  1.625757433094055 1.84268057552138 0  0.9818707849053143 1.165603626132254 0  2.0086489901463 1.243134585689553 0  1.934584460420609 2.374094051915812 0  1.798434376789567 2.38671361912528 0  1.206314791201715 1.382064292497919 0  0.6333752893366955 0.7023738550008095 0  0.7796219811205605 1.42573253164258 0  1.564399711917382 1.026040828857629 0  0.3385416666666666 0.4889012896825397 0  0.1041666666666667 0.390625 0  0.989112246382566 1.543537365516289 0  2.025724425454636 0.9846960595520872 0  0.6602885475034063 2.086117390485779 0  1.607130551925032 1.267198646640915 0  0.1317864544877056 0.8896173683400176 0  1.755387840017567 2.230364320056445 0  1.301540702984401 0.1216289692748247 0  1.433170657577442 0.3331052752740999 0  1.500459610550388 0.113513924782439 0  0.6494291520606965 1.029586599619295 0  1.010146149868299 0.794897284196169 0  0.3700844198238017 2.235390157870766 0  0.3360891767780704 2.36656279435396 0  1.876856241037701 1.437150669863757 0  1.778674102957329 1.245979347269706 0  0.5472829890977179 0.1005517127039925 0  0.4669074189005698 0.3416784232954367 0  1.472765289289269 1.850899166481903 0  1.555853593327178 1.608452097912802 0  0.6708955559113426 1.646561631116984 0  0.8164699620322933 0.5924479455478063 0  0.3167738989468366 1.758696809749795 0  0.2788007305565096 1.605499483471246 0  0.7821720982350511 0.181524936294752 0  1.376812251214195 2.313340247908297 0  1.785652202614777 0.5962261755537186 0  1.761467296310972 0.4679567244718574 0  2.2265625 1.8359375 0  2.3828125 1.9140625 0  0.5279531607054191 2.071552361614785 0  2.397573269551114 0.234375 0  2.383578172599618 0.3589298466020009 0  0.1024267304488855 2.265625 0  0.1164218274003825 2.141070153397999 0  0.2696857594953064 2.135405441512016 0  2.164961300137334 0.1375322943529536 0  2.137757548369486 0.2724194778647587 0  2.238873711826398 0.3626419179496562 0  0.1001414910226386 0.234375 0  0.2176339285714286 0.3478422619047619 0  0.2503620791333544 0.1061694061057066 0  2.336445461915368 0.1250451055247424 0  0.2154004640409726 2.3918124
[...]
<PointData  Scalars="f_124-1"> 
<DataArray  type="Float64"  Name="f_124-1"  format="ascii">3.8398991189760451e-11  9.5620525788696386e-04  1.9503559179530933e-15  1.7746558815760553e-17  1.3227044264823747e-05  1.7370460348454138e-13  1.6898624530597442e-11  6.5088701259087634e-03  4.0062037321678660e-04  5.7193757099354064e-02  8.7994683410821917e-04  4.3435681744144522e-11  4.5444495453790393e-06  1.5685530884630158e-15  8.5087743357951221e-10  1.9123647925939089e-14  1.1429512023674660e-13  1.1580617145450980e-07  2.0807272920468861e-05  4.9314583444174482e-03  2.7492761698980793e-08  9.4630735058910710e-03  4.2326058626479965e-07  3.3007974672549789e-02  2.0161477730370878e-11  5.8375091019893517e-04  8.2910496481691504e-06  2.1043187670642772e-08  1.0089479901059389e-10  8.4137759424031945e-12  1.0583500871751504e-07  2.6513021944080061e-06  3.7902459615142305e-02  4.2096376521826885e-10  5.2053954089348960e-04  7.6473285401522319e-04  1.1954072164677138e-08  6.3488515719216610e-03  5.7596532031419338e-06  3.2707212327803368e-11  1.2704691256162600e-04  6.4859016949582966e-10  1.3245965689332958e-03  3.9315465992226413e-02  1.0592267446643948e-15  1.6166972110466683e-15  8.8026008273830413e-03  2.7729002991976694e-02  7.1815540787988873e-09  1.6795410683262691e-07  2.2463575196687838e-04  2.9610639926743905e-11  1.3747043146076536e-12  2.9486587984269058e-14  2.8514254789613943e-02  3.8839340448196225e-04  2.6490356623198742e-11  7.1471710230392984e-16  1.9114636541345238e-08  2.2355001443770277e-12  1.3636976731981807e-13  1.5129370361940202e-03  2.5184826709766185e-06  2.6729245054946834e-09  3.9269649345495498e-05  1.5583457745233089e-05  1.1593501890290489e-03  1.8763081453537615e-10  8.9093084757717323e-09  4.7749409440815925e-08  1.0632803818995576e-04  1.1365107634748396e-05  6.3688786577414318e-05  5.9125957385674992e-02  3.7782261353727824e-03  1.8546424717625441e-02  8.5771997786736019e-13  6.0978487729538247e-14  5.9473842819613009e-12  1.9755494195749920e-06  2.4915088754998399e-02  2.7848849163488490e-04  6.7548904063967638e-08  6.2312764709007784e-06  1.3224664726094567e-09  4.0131931961423106e-14  1.4143095378163305e-13  1.0275752856368273e-06  3.4073769996775725e-07  3.2452583542725987e-09  2.9157769782363622e-11  8.1142339196057522e-13  5.4542931517945704e-10  4.4080825735917313e-12  6.1158547855786383e-10  5.7694983696756925e-05  1.8385375112651694e-03  6.8007639358462758e-12  6.9309081250887233e-08  1.0237325515095845e-09  4.2517373455101175e-07  2.0666330658724448e-08  8.2474860881792906e-07  4.0424698107517694e-05  2.0372292567418936e-07  5.3735371030009096e-02  4.3607437754050307e-02  2.4180023185049065e-02  6.6503465013672661e-10  6.3790505017424191e-13  1.5150779756101010e-04  1.5309803869847273e-02  2.1426341107056553e-02  4.4274824376676694e-03  1.1863158395869487e-02  1.6765673760877513e-03  1.3554296063146747e-03  2.5426455743583853e-09  2.2208262289694109e-10  1.3503095012184240e-06  4.1715089808119386e-03  8.3888993997688478e-10  1.6242825568892843e-14  1.1022952817195250e-03  1.1914271357496646e-04  1.4423556952609172e-16  4.2320065734180276e-02  6.8078040779250214e-12  1.1631485114422093e-10  9.4266528538459812e-08  3.4594640708054550e-03  3.0392161407528563e-07  2.6733923669378177e-04  3.7399952676956502e-07  1.1191223696221348e-09  4.0070126075164280e-06  4.7080553891536998e-06  4.7782272556358585e-02  6.0967580637826639e-05  1.5368482044957514e-02  3.0700153555576016e-04  1.8323928301240887e-05  6.4621281863011626e-05  3.6550871088542492e-05  8.0340795031929912e-13  5.2124091457374175e-12  1.7010287617292675e-16  1.7012787933738224e-11  5.3302652972624712e-06  2.7119306730081460e-12  7.2569208603953653e-05  3.7868674776877588e-02  5.0748873685897938e-04  1.7739132719580730e-13  3.3552650411353704e-03  2.7187825662403900e-04  1.7930623029498565e-09  1.9094426521834762e-10  1.4691052926051980e-08  1.4297213263360526e-07  3.6583040664998890e-14  2.0618813297575999e-08  9.1891973193958664e-13  5.4436704766351554e-14  1.2574547343536648e-15  3.5832862480326118e-11  6.5903410756382577e-10  6.2946681634128612e-03  2.1410708522533562e-02  2.6498367885070461e-03  8.3881976638416535e-03  9.6284045698977812e-04  1.0050725146848160e-08  8.0670994372827778e-04  1.4061053801622326e-02  2.1750388664456195e-11  1.6877691885120682e-02  7.5901359316118174e-04  1.2654159751438158e-02  3.3154744517654320e-03  3.0690892412639368e-07  7.7749981989489036e-06  3.2901426539324369e-10  5.5259686813426474e-12  2.9744957169995016e-11  3.5014073156183522e-11  2.1051935899106266e-13  2.4126030563599627e-11  7.3081433335006246e-15  9.7767141682994383e-14  4.1385270771403684e-11  5.6875275396089912e-16  1.4835295673971497e-06  1.2318143927533603e-03  5.9523037972452390e-02  2.0017566984658259e-03  5.2701967491507755e-05  3.9116126156221646e-07  6.2345889721022991e-14  4.8435167168787417e-15  1.4734908849079292e-09  3.8129388382187088e-04  2.0190655293243342e-15  6.4942850827760038e-07  1.1625618204715967e-04  2.1574051105042392e-05  1.6061502902503989e-06  5.3308941779348069e-08  4.6964764035769754e-03  5.8672110995226817e-02  5.4177604753764841e-09  5.4077413855310392e-09  1.0007992089925556e-06  1.1836825527745277e-10  2.9187608228866187e-09  3.6749617183053321e-02  6.9117864259849908e-11  3.1579209747536373e-05  2.6370242798384398e-06  2.9473278456922923e-12  4.9981170843699306e-07  5.8308715878144164e-10  4.1755429709407616e-09  3.6654954978709536e-11  1.6465612435018025e-08  5.9353673546915237e-10  1.5485052477393983e-09  1.1747813508416181e-03  7.3437924808494241e-04  2.0487728997164267e-08  1.3620764969575672e-03  5.3198182602671619e-13  8.8484203915400397e-15  1.0933131954789047e-05  5.5446122105862679e-08  3.8989644246109283e-10  1.2351309193534745e-04  9.6709666661384325e-05  8.7699051215293902e-07  6.2894378753934011e-11  2.6496730484400691e-07  1.0543421235244458e-07  1.1906952553869195e-05  2.2015547362195210e-05  3.3480834009329312e-04  3.7018372852419854e-04  8.1509088756927112e-03  4.8465162473613525e-08  3.4011937145505119e-03  8.8113666959369795e-09  4.0769095064405694e-13  1.6444217213672616e-12  2.3212883339903111e-04  3.1349997378957349e-02  1.0906028682815495e-03  1.8909143521223539e-05  5.0913210266575283e-02  5.0014682179677521e-02  1.9158933704232367e-04  3.1124643528176753e-09  1.0910099263281826e-07  7.0227824857365966e-06  3.3969072711847445e-02  4.3053886267544981e-11  7.7751023303332423e-06  1.9496965950924233e-06  4.4984700016569721e-07  1.7503000831122578e-02  5.1115635155883511e-03  8.7321221136527807e-09  4.3677987707585863e-10  5.0454382767962493e-08  5.0292539800735743e-07  1.1664815409944617e-03  1.7074165450266316e-02  2.0240957970737945e-07  1.2381510944916833e-06  1.0425537435137157e-04  9.8227964174982130e-03  3.0208035759196500e-05  2.2813349158724207e-04  6.0979026246062835e-04  2.2862207213073061e-10  2.5776283138841415e-08  1.3138254825496770e-08  6.3978716354519846e-12  1.2850010308643931e-13  1.7695807702457124e-07  6.3711178474848752e-15  8.4870558067287566e-15  4.4555521598834822e-09  5.2961971448240553e-08  6.0428628871990116e-08  1.8374380393798729e-12  2.8259603754384566e-12  3.0486644249895047e-13  2.5500030630569832e-02  4.4441317724147868e-02  5.6842628406811651e-03  3.8906250609569976e-14  2.7685950119851203e-10  7.0043697630853362e-09  9.1015506484279744e-03  1.2876054767216809e-08  1.4546788735876305e-03  8.8982238560134601e-05  6.1861678574064190e-05  8.1021524315837823e-07  1.4034258431050277e-06  9.1499162823563650e-03  1.6899135412797816e-06  2.2717819803241976e-10  2.8813903904675465e-14  9.6198830498388365e-14  4.2164435066085754e-15  1.9900796484149320e-02  2.8115510812081730e-06  3.5788293020879078e-06  1.2974290769559765e-05  8.3256558704305785e-11  1.0760689924325049e-05  1.6983639674081845e-09  3.5395905537270352e-02  5.9793531162607897e-05  1.2358963547114004e-05  1.0564003948834531e-11  3.7554056006145891e-04  5.8457293115497334e-11  1.5918744332160767e-08  1.1710959246309858e-02  6.3203784858956110e-13  5.1919498779422008e-02  4.8161220048448241e-03  2.0926275791843220e-10  1.2002871948818294e-10  1.2113506672537612e-10  9.3659509901203038e-11  1.0757670721060933e-03  3.7221233780143420e-03  8.0210682864721076e-13  5.2306066560063128e-11  8.9461638656392339e-03  4.9550467552016405e-08  1.5673265772806724e-06  2.6174600988191801e-11  3.3020774734474079e-09  4.8611794807100742e-13  2.9197936466704531e-09  1.0694896561228747e-04  2.0692988866805595e-10  1.8558694187682178e-03  4.8496586890108537e-02  4.7154534633697606e-02  5.7837848371576371e-02  8.1244925977355507e-08  1.5678568402498230e-04  9.8980990891001704e-03  1.0392265320012725e-12  7.9089097597816877e-13  4.1152908325818843e-11  2.3590221406119118e-10  1.5291632241835645e-16  5.0275195669052021e-09  5.0790498462694036e-10  1.8288731536940970e-05  1.5577779713269543e-14  3.8095789793330372e-07  4.0263920369622009e-10  1.4960423133434806e-07  1.5789099903741061e-06  1.2520814534358653e-04  9.9550537444573748e-04  1.4192496529353222e-02  6.6515284349806279e-13  2.2224471484485010e-06  3.0240234557578397e-03  1.3420464795664987e-03  1.3555852580675613e-11  2.5990944383456595e-02  9.7357754826698367e-03  1.8889784199458776e-02  7.3487395975840647e-03  2.0097986867674551e-09  2.2092428482292856e-03  8.0105564676183982e-06  8.9990297420235261e-05  4.9263026393964111e-07  4.7763821935887024e-08  8.6842121717900483e-12  2.9971905189410896e-04  3.3289457467780243e-05  2.6034043218680766e-03  7.0694062734657656e-09  3.2880506249054677e-02  1.2351111571760075e-02  3.2310887604074292e-12  2.3446333780946420e-05  6.3466242512417265e-08  4.1291120907650729e-12  7.4832327683553807e-04  6.2492258810013641e-02  2.3574092379928215e-02  1.8825517148969459e-08  5.3951232396570965e-10  3.5832213047252195e-05  1.0456479744910837e-09  1.6436490729394426e-11  3.4322053263068797e-04  3.4952948250518964e-02  9.1970870379470671e-15  4.4116562344120722e-04  5.2710375994986769e-04  1.4676084611055797e-03  9.9513154497640280e-13  5.3080891928120723e-05  3.8024036712272198e-04  2.4886716431297948e-07  4.6639332184660841e-02  1.5070123770120321e-02  3.8410435181191010e-11  6.4890742576087491e-04  8.9702540250380946e-08  2.3157312434379152e-09  2.3508701796172685e-10  2.3706849317777323e-03  7.1582137838108106e-03  5.6529063187510048e-06  5.4908388534847529e-08  1.4752148092179233e-09  1.0844490471469380e-10  6.7324687446017220e-04  1.1341692068827281e-04  1.2542470516192788e-10  1.8173496773947231e-09  2.6298003833653294e-11  1.3788088466969743e-05  4.9670680199545276e-07  1.9497795312531781e-06  7.4819080858254654e-09  6.1993449784628486e-04  3.8510493218177500e-13  4.6108760441051044e-05  3.8924600142241699e-03  2.3434438888659152e-09  1.0789864102517761e-15  2.2076780209108162e-02  2.8646290308983778e-07  3.6525348732870448e-05  2.5798394137090949e-04  2.9726367308569715e-13  1.5813316135329140e-05  1.5162096725208740e-02  7.0164532151713815e-10  9.6972960440808317e-14  1.1794899834993377e-11  2.2244081934226911e-11  3.8645945012705228e-03  4.7448674734400828e-02  4.6429422481021826e-04  4.2889246666100909e-02  9.3684414919204940e-07  1.3192709191283154e-06  4.9618598364412209e-03  7.6026703224891653e-12  1.4427238452436615e-11  2.2720765743738250e-03  2.7481758181410211e-09  2.8083627758671976e-02  4.8922516236117190e-07  5.5507372811345990e-02  1.6788286803781730e-10  2.8269291742178205e-03  4.0768515931899809e-03  4.4292543506471337e-05  7.9406546381686841e-06  5.5868898885576522e-06  2.1526382715512282e-06  9.9115855686358433e-07  1.4093035354034315e-05  2.0069981338821149e-03  2.8317449837791692e-11  1.0154599975454621e-12  7.3626514839694314e-14  2.7380883417301591e-09  8.4179991524551377e-03  1.2237405559096567e-12  9.0590809847933117e-03  8.2796026875928103e-05  6.3249499625289999e-03  4.5900201604060337e-08  5.4835259242864748e-04  1.7209185621481144e-06  2.7863695157378705e-10  2.7081668705304611e-05  1.4526445492029237e-14  6.6124535809389603e-12  4.9744203624546384e-08  3.6850307390523978e-11  3.2169440577356800e-06  3.1037371236669724e-12  4.0717489383130685e-10  8.6026448093945571e-06  8.9019656076835547e-04  1.3183095799242850e-03  7.0339281861239018e-16  5.6435830168397076e-15  1.3824047146235361e-10  2.2091884190968022e-04  9.0641333401289671e-06  1.8853181722111900e-05  2.3060413294901989e-07  8.3722560951801414e-14  3.5535055289685129e-04  1.2387775650503644e-08  1.8126594663577431e-03  2.0017820930702489e-02  1.4425488623631882e-08  1.6321610172174226e-05  7.8923739291091014e-07  1.5914726343231206e-10  2.1777710768942021e-10  6.1798286112942698e-05  6.3661094803951497e-04  2.5770134260895422e-04  1.1336801053210856e-12  1.1818118738886886e-08  3.4461103537006145e-06  7.4112121933381524e-07  2.2441224299721333e-07  8.3296771006162831e-09  3.6653943809210771e-07  4.1971664316213857e-11  2.5618740860269337e-11  2.0092317321730236e-05  3.9012996033493170e-15  6.4718140540964795e-10  2.9831800488552210e-10  9.8773192218663728e-09  1.1009678055627841e-13  8.7678157215504146e-13  2.9142843343857188e-13  1.7366511465478103e-15  1.9238479445228407e-08  7.5374834461029909e-12  1.4518477217371907e-02  1.4311180393916340e-02  4.7614724491649787e-06  8.8979726679657935e-11  2.5246212416722002e-12  2.1006368002072659e-06  5.7053787841919412e-15  8.1662198461710984e-14  2.3060220720282109e-04  1.1292790118718637e-04  4.8875969855019680e-14  1.7988604950857778e-08  2.3622071599144611e-05  1.0571417378911691e-03  1.8441646693516890e-09  1.5162894755912118e-09  2.8452872836041217e-13  3.4558745867859196e-02  5.1974803345640440e-02  3.3618028383993324e-02  2.1552733148021731e-06  5.6790688275285481e-15  1.4225321107392694e-07  3.5544669303043029e-02  1.7749178010733948e-14  1.1359859682627985e-09  4.1179927583981870e-07  1.5522618510078795e-07  4.8016148946555416e-09  7.3248388616742156e-16  3.9672622183697189e-06  7.0804688813480601e-12  1.6779896210997796e-14  4.2187592434933488e-02  5.0775719416693086e-04  6.8595031203570536e-06  4.0343658032129212e-11  1.3860988299957114e-13  1.7770361663840468e-05  1.1141535314347442e-08  1.4983371309155618e-03  4.3696444014275433e-06  9.9041800576630729e-15  1.9903742596726550e-04  2.4979825016883662e-02  2.4077488721709500e-03  1.2607215172483758e-07  4.7824384547818051e-03  5.8709318913059997e-04  3.2771513691829313e-04  4.7033150554523091e-11  4.8445311874452202e-08  1.6878766343533271e-02  2.6731980776098546e-03  4.4370663894586137e-03  9.1927534093688538e-04  1.3306995172818680e-03  1.9243374688396660e-02  6.8873118804497428e-03  5.4516495322646716e-13  5.9012327955035726e-14  9.0766400213379192e-05  3.7194918223027335e-04  2.6742979598206115e-04  1.2983702443559234e-03  3.9205756852252818e-02  1.4231712368209617e-08  1.1260766937975279e-11  1.3304131890164752e-04  4.6906464249264944e-12  3.2311884640809924e-13  1.9791712075449774e-13  1.1209494817905814e-07  5.3411096815242803e-13  2.8784868342378507e-03  1.1439962534378593e-10  3.4542035753530083e-05  8.2092766090455963e-10  4.3127260114012734e-10  9.2254583336435982e-04  1.8621705134391137e-03  1.6709299218218856e-11  4.5453219418646768e-06  1.0521553867728799e-14  1.8615453583734898e-02  7.9980395395801803e-08  2.2430310901104227e-15  2.1322176563649754e-02  2.5081778671418292e-02  1.7904009633086000e-06  1.0990039651220185e-09  1.2264852510597600e-04  1.9304051038509739e-04  5.3273036138657860e-14  2.0591053910686023e-03  7.1620627423032793e-13  3.0524601619742800e-11  1.7618554706402592e-04  4.4149719922255684e-10  5.3922074496898884e-02  7.9210435933057253e-05  3.0687778982654428e-08  2.1772794475688348e-07  4.2131783742229038e-06  2.4039902825178664e-11  1.2456239081913325e-08  1.7842536173176706e-06  2.0912851341814169e-03  8.9287444024679744e-07  1.0401917275443178e-08  6.7532113494690438e-12  8.4952941444180849e-13  7.4041847893054600e-08  6.3939475570230159e-03  2.4203553999210644e-11  6.0811954527178531e-13  2.9222997756726831e-05  4.4955493479724626e-16  3.0234745341753115e-11  5.7809471113324175e-15  1.4705718600538182e-10  4.0245116914590049e-11  1.0056728428811205e-11  1.5757358007280597e-04  3.5914163384620575e-11  1.0973499944670554e-13  3.1556846009859706e-09  5.1594107067879940e-08  1.3740231240104397e-13  1.9548125812137255e-13  1.7887364030244909e-13  2.1413572568139434e-02  1.0165816599269810e-02  3.8762375603183705e-03  2.1064251023069280e-11  5.2251855287645865e-02  3.4932827096720515e-04  1.9938085357917665e-10  1.4711770755305763e-06  3.3435527647592282e-11  1.1733285171878955e-03  3.5169691793964392e-09  8.6121209038776839e-16  1.0886025473513345e-03  5.6934060233315638e-07  2.7268795600977377e-02  5.0030487842592689e-02  2.6586565329059018e-13  3.8833186474277327e-16  5.0334205699966540e-17  4.6454673741932632e-17  8.7245243541340803e-04  3.5024829519084361e-12  6.0093418039500739e-02  3.9490630986849352e-14  2.5770521765709951e-15  5.9619055464911746e-16  8.0124025606270054e-09  4.4054078458989698e-09  7.4098137854764111e-05  1.2400667602509473e-10  8.7459336555592274e-06  7.2125495587977393e-11  2.5112240496870584e-02  4.0836616151895128e-02  3.7168441416601916e-02  6.7745544200182169e-12  1.3630373154272762e-03  1.7154817481459261e-02  5.9270762543008816e-02  4.5914180113261464e-07  4.1319647048116684e-03  7.2847543613097250e-04  9.1190196025152929e-08  9.5313895914415469e-04  4.1969998424914404e-04  1.8525631040201297e-04  3.4029015937508704e-03  5.4073046280270362e-02  6.0896608420118230e-02  3.1064069185410541e-11  6.3660626498943431e-08  9.2216949401356885e-07  2.5303027736468530e-10  3.3093087807234349e-02  1.0740695791842540e-12  5.0050910234526887e-04  1.3428069157229276e-07  2.1870164880797697e-03  2.9576702936809585e-02  2.3383041645691361e-05  5.2909797001786952e-07  4.2793718920632566e-06  1.3505015620063381e-02  5.7264229969264686e-03  3.7627156242229963e-10  6.9856338692071490e-12  3.0314079256815424e-02  7.8287978963318248e-11  5.4996283146944846e-12  6.3289000563706860e-04  2.3719312392136645e-06  8.9951828213191559e-03  7.1302081284301727e-07  1.5561538996308293e-02  1.6176519281308652e-11  7.4489749207033528e-05  3.6129617799209522e-05  1.3024521298987646e-09  2.5285369093876595e-08  1.7308195279538059e-08  1.6172278868341016e-09  3.3556949189793944e-09  3.4787361197760076e-08  1.9788492393732720e-03  6.3173872974921945e-08  1.8204614067756314e-05  2.5687407114641638e-04  5.3077227248893311e-06  3.0334043303103150e-06  7.2036094418265490e-11  4.9538108269260540e-05  2.2979000028620879e-08  4.6747007599051357e-09  2.1022291003792239e-07  2.3338565583490562e-07  2.5843984766492920e-04  1.6437596324693854e-04  4.4945252746947135e-05  2.2940926016118599e-03  1.5453190137160540e-12  2.5003423128703290e-09  1.3483243919340325e-09  1.0778149859066450e-08  2.3854603562656796e-08  5.3482361556287582e-09  4.9778420501286361e-11  4.2071936921101021e-06  1.1297722685781819e-06  3.2271497061764375e-11  1.2134676318359761e-13  1.8265780858947762e-10  1.9906289904785954e-05  1.1803186137183523e-03  7.6709444914774792e-03  4.5330166077246776e-06  5.4431850208365499e-11  1.4675465395749644e-02  5.3300660343744566e-06  8.6266997575411405e-12  4.2336703448980370e-02  4.6280812850609612e-10  6.3365264610776519e-12  5.4430185945475990e-12  3.6013114040309616e-14  5.8852559691655218e-11  1.2283086200017037e-10  1.1790700964497552e-03  7.3118668446351314e-06  1.1571914189452358e-04  4.1226571895546229e-03  6.3400672196643165e-09  7.6333657754844205e-10  7.8951873523847978e-06  4.2206275544903726e-14  1.0420431326763962e-04  3.9026460243940685e-05  1.1762028264125713e-03  2.2368565619945639e-03  2.6360406238167427e-09  1.4316323491144580e-10  3.6622614711403653e-10  8.8960337154731297e-11  1.0970939404112330e-09  1.1356310655310083e-13  4.0867242746829284e-14  7.4327442876699843e-08  1.7045830575859469e-07  7.6124253198860102e-15  8.0797606410713110e-12  2.6974814451139805e-08  2.4057026593190198e-09  1.1354293959735534e-08  4.1092012029056683e-08  1.7689413325573780e-09  6.25433356059