<?xml version="1.0"?>
<VTKFile type="UnstructuredGrid"  version="0.1"  >
<UnstructuredGrid>
<Piece  NumberOfPoints="6486" NumberOfCells="12696">
<Points>
<DataArray  type="Float64"  NumberOfComponents="3"  format="ascii">0 2.5 0  0 0 0  2.5 0 0  2.5 2.5 0  1.25 0 0  2.5 1.25 0  1.25 2.5 0  0 1.25 0  1.25 1.25 0  0 0.625 0  0.625 0 0  0.625 2.5 0  0 1.875 0  2.5 0.625 0  1.875 0 0  2.5 1.875 0  1.875 2.5 0  1.770833333333333 0.7291666666666666 0  0.7291666666666666 1.770833333333333 0  0.9375 0.625 0  1.875 1.5625 0  0.642361111111111 1.163194444444444 0  1.341594827586207 1.883979885057471 0  0.46875 0.46875 0  2.03125 2.03125 0  0.3626104797979798 1.513178661616162 0  1.381740196078431 0.4564950980392157 0  0.9375 2.172619047619047 0  2.172619047619047 0.9375 0  2.096354166666667 0.4036458333333332 0  0.4036458333333333 2.096354166666667 0  1.684027777777778 1.163194444444444 0  0.3418803418803419 0.8693910256410255 0  1.642742622813391 2.162164207604464 0  1.275619849389031 0.8465650753054845 0  0.9136284722222221 1.434461805555556 0  1.732437511238546 0.3406962303960658 0  0.9714402568595876 1.029779313093998 0  1.52281746031746 1.485615079365079 0  2.1875 1.71875 0  1.06819722569879 0.2997236128493951 0  2.136114211309524 1.303478422619048 0  0.3125 0 0  0 0.3125 0  2.5 2.1875 0  2.1875 2.5 0  0.3200021620376328 1.192323085056694 0  0.6738456129277992 0.8304377375553881 0  1.757891808928991 1.861952730357003 0  1.5625 0 0  0.9375 0 0  0.3125 2.5 0  2.1875 0 0  2.5 0.9375 0  0 0.9375 0  0 1.5625 0  0.9375 2.5 0  2.5 0.3125 0  0 2.1875 0  1.5625 2.5 0  2.5 1.5625 0  0.7448220909826522 0.3003573636608841 0  1.027298850574712 1.871151477832512 0  1.331260495098891 2.197262878816185 0  1.207917681892289 1.582765010956622 0  0.4339993447432606 1.801186844743261 0  0.6337298768939392 1.443093039772727 0  2.049851190476191 0.6826636904761904 0  0.6584821428571428 2.219122023809524 0  1.89575676467455 0.9798457973793544 0  1.437570562095628 1.059380588255917 0  1.502090052505845 0.6987070896496241 0  0.2040860661083546 1.705323965099331 0  0.2083333333333333 0.46875 0  0.5070952039991439 0.2211150679997147 0  0.6916302856529919 0.5813591430410241 0  2.265625 1.953125 0  2.2265625 2.2265625 0  1.886424081252096 2.243391360417365 0  1.40625 0.202164758520858 0  0.2269345238095238 0.2269345238095238 0  1.152730869673694 0.5225850378741401 0  1.885631899587912 1.312095130148776 0  1.614808884009367 0.9049784971014416 0  1.890095442220658 0.5126535558463003 0  2.323168682795699 0.46875 0  2.268811725689575 0.2304742875213018 0  0.6002389442105756 1.967426444210576 0  0.1768313172043011 2.03125 0  0.2311882743104251 2.269525712478698 0  2.03125 0.176831317204301 0  2.280262553344767 0.6954945504579233 0  1.979219539285994 1.809922269642997 0  2.336309523809524 1.09375 0  1.09375 2.336309523809524 0  0.9314042474388009 1.662973812215543 0  0.1634067999087722 1.40625 0  2.337090640094896 1.40625 0  1.141616997467638 2.069311773587991 0  0.46875 2.338939559681489 0  1.542440307908715 1.734944797244472 0  1.556713687786879 1.956977865354753 0  0.8264238995344066 1.975424467820646 0  1.466326331454725 1.275271369760862 0  1.655675324257095 0.5444159974393489 0  0.3385416666666666 0.6479255698005697 0  0 0.78125 0  0.5236073939200119 0.984090461540625 0  2.091665741047893 1.519793517904215 0  1.71875 2.5 0  0.5356538886262603 1.623137930505009 0  0 1.09375 0  0.1932884281517095 1.015625 0  0.8569313582417669 1.2198915584249 0  0.8876981284879677 0.8329884081524883 0  1.115618488474214 0.7219586973356271 0  1.186950366204949 1.043465130075318 0  2.057459118787237 1.110823087309335 0  1.830651283878689 2.049810069572418 0  1.689107969301489 1.367247437031697 0  0.4921048768039656 1.298643370653124 0  0.8213975694444444 2.336309523809524 0  2.03125 2.5 0  1.049729400480002 1.283723261332814 0  1.308101375801673 0.6489479469700392 0  2.5 2.34375 0  0.4968777175037714 0.7562964879736076 0  1.40625 2.5 0  1.501347663534097 2.307027627307738 0  1.602813712048603 0.1926218191360736 0  0.8393082906308107 0.463778306132633 0  1.682663349152719 1.598471865581041 0  0.7774174680851571 1.560004941327907 0  1.554204170364662 0.3898593897892066 0  1.842184459051087 0.186443880058197 0  1.358107417651776 1.696381759610015 0  1.18859291992392 1.77598670078022 0  0.1875331222687418 0.7609599743339348 0  1.339536743965101 1.422080365801479 0  0.7788179348750389 0.9955343414928611 0  0.9062978492805438 0.1919636509126373 0  1.256007360640958 0.3160320559396114 0  1.09375 0 0  1.174986727221844 0.1594990293443933 0  2.34375 1.796875 0  2.318026474511116 1.589177949022232 0  2.34375 2.5 0  1.672742954892153 2.332882724550692 0  0.2683637361947215 1.874801596909639 0  2.174770749820102 0.5581009131310781 0  1.443279522965991 0.8870068372898454 0  0.3385416666666667 0.3571428571428572 0  0.78125 0 0  2.060421048269335 2.314363248763811 0  1.088078737088509 0.8967352118723447 0  1.087825368444708 1.454931510884769 0  2.018308232129541 0.8548495425854904 0  1.943987311736842 0.3246298523011434 0  1.71875 0 0  1.85337849796276 1.144833312386208 0  2.3486328125 2.1044921875 0  1.407588788651747 2.042968789119587 0  2.336309523809524 0.865366648092144 0  2.34375 0 0  2.5 0.15625 0  0.15625 2.5 0  0 2.34375 0  0.1638044648294291 1.242263417405867 0  0.356216654757926 1.032569427322806 0  0.3188217956111817 1.355736727000647 0  0.5924956460852111 0.36112522004736 0  0.6594216488965849 0.1603472116132387 0  1.841804599497131 1.72214349266521 0  0.15625 0 0  0 0.15625 0  2.115898634821499 1.894570904464496 0  0.7821877980253907 0.7129993435924866 0  1.003820447087786 0.4516053462784233 0  0.477562948779147 1.138333049293613 0  0.719493678605015 1.305655360135975 0  0.9772457618587566 2.020350128938537 0  0.8764738248887107 1.826219722709673 0  1.254787875123819 2.339010653832026 0  2.343597354852534 1.249982759769001 0  0.78125 2.5 0  0.46875 2.5 0  2.5 1.40625 0  1.09375 2.5 0  2.5 0.78125 0  2.5 1.09375 0  2.03125 0 0  2.5 0.46875 0  1.40625 0 0  0.46875 0 0  0 0.46875 0  0 1.40625 0  0 1.71875 0  0 2.03125 0  2.5 1.71875 0  2.5 2.03125 0  2.005424054645407 1.653223486966518 0  0.1538730573856537 1.559850281736677 0  2.33984375 2.33984375 0  1.166539506212474 1.922878979538754 0  0.3914885633949916 1.65887232812171 0  0.5795503163042564 1.766243562569382 0  0.399533125920212 1.946786875081388 0  0.7866324979014098 2.127719094551316 0  0.3654683023546834 0.1495701132219454 0  0.1527388747131078 0.6116379440619215 0  2.013737577140188 1.391056634712135 0  1.17635437372994 2.213329084238133 0  1.737118141866284 1.010577140843115 0  2.200707118087222 1.164723314085963 0  1.697018908736685 1.993548551451517 0  0.5387621649009668 0.6070503962352419 0  2.032805785855952 0.5330427622570983 0  1.082699501358059 1.667818725183932 0  1.503819781540653 0.5468420196858188 0  2.015409142866072 2.175941657590429 0  1.752057611265444 0.869642097111018 0  0.612251684107783 2.356045720700959 0  1.902817102342857 0.6607642211999982 0  2.159616561739693 0.7867739969338844 0  0.5120038350106624 2.197302352398502 0  1.888200216011548 1.919501662489862 0  1.495909909726654 2.16028358757309 0  0.489139876703609 1.443203008943564 0  0.8819175670410521 0.3301172743913011 0  1.882591144370812 0.8155965192707721 0  1.133979796994841 1.172526771862882 0  2.206217447916667 2.084147135416667 0  2.20361328125 2.36279296875 0  1.395746985657004 1.556054166359645 0  1.704383111516207 1.734750450338683 0  0.9575737847222222 2.36274223823052 0  1.035150984253136 0.1302833343179028 0  1.383966125325753 0.7651479963479179 0  1.64003252158672 0.6824316405528895 0  2.22550785055421 1.487078576356817 0  1.760964431499756 1.48495222505201 0  1.276460980673788 2.004207003584658 0  0.1341477688427096 1.828777507920502 0  1.542261434180652 1.155296658359034 0  1.334627911613854 0.9696897472490321 0  1.30794231473696 1.119420615785191 0  0.7028260459857245 0.4438906910721139 0  1.625757433094055 1.84268057552138 0  0.9818707849053143 1.165603626132254 0  2.0086489901463 1.243134585689553 0  1.934584460420609 2.374094051915812 0  1.798434376789567 2.38671361912528 0  1.206314791201715 1.382064292497919 0  0.6333752893366955 0.7023738550008095 0  0.7796219811205605 1.42573253164258 0  1.564399711917382 1.026040828857629 0  0.3385416666666666 0.4889012896825397 0  0.1041666666666667 0.390625 0  0.989112246382566 1.543537365516289 0  2.025724425454636 0.9846960595520872 0  0.6602885475034063 2.086117390485779 0  1.607130551925032 1.267198646640915 0  0.1317864544877056 0.8896173683400176 0  1.755387840017567 2.230364320056445 0  1.301540702984401 0.1216289692748247 0  1.433170657577442 0.3331052752740999 0  1.500459610550388 0.113513924782439 0  0.6494291520606965 1.029586599619295 0  1.010146149868299 0.794897284196169 0  0.3700844198238017 2.235390157870766 0  0.3360891767780704 2.36656279435396 0  1.876856241037701 1.437150669863757 0  1.778674102957329 1.245979347269706 0  0.5472829890977179 0.1005517127039925 0  0.4669074189005698 0.3416784232954367 0  1.472765289289269 1.850899166481903 0  1.555853593327178 1.608452097912802 0  0.6708955559113426 1.646561631116984 0  0.8164699620322933 0.5924479455478063 0  0.3167738989468366 1.758696809749795 0  0.2788007305565096 1.605499483471246 0  0.7821720982350511 0.181524936294752 0  1.376812251214195 2.313340247908297 0  1.785652202614777 0.5962261755537186 0  1.761467296310972 0.4679567244718574 0  2.2265625 1.8359375 0  2.3828125 1.9140625 0  0.5279531607054191 2.071552361614785 0  2.397573269551114 0.234375 0  2.383578172599618 0.3589298466020009 0  0.1024267304488855 2.265625 0  0.1164218274003825 2.141070153397999 0  0.2696857594953064 2.135405441512016 0  2.164961300137334 0.1375322943529536 0  2.137757548369486 0.2724194778647587 0  2.238873711826398 0.3626419179496562 0  0.1001414910226386 0.234375 0  0.2176339285714286 0.3478422619047619 0  0.2503620791333544 0.1061694061057066 0  2.336445461915368 0.1250451055247424 0  0.2154004640409726 2.3918124
[...]
<PointData  Scalars="f_49-1"> 
<DataArray  type="Float64"  Name="f_49-1"  format="ascii">2.5942157256320426e-50  1.9337993179041540e-07  -2.2377546164676038e-57  1.1474641569973335e-69  4.3586040201873997e-29  4.0257141155762400e-60  2.0096629416356490e-58  -6.5035246466530572e-20  6.1376206245067419e-30  7.0239216515399175e-07  1.0915852309903115e-14  4.9980837324664919e-54  5.7636598517536659e-35  -9.6662338420614293e-62  -1.2837403428691167e-43  -3.3420830622139821e-65  2.6703586218908293e-62  -8.6321586106298456e-41  4.1688633613877149e-36  -3.0894113936846462e-18  -2.3680834403812888e-47  -1.4534166058885393e-21  1.4256061913360046e-42  1.3917624624939667e-07  4.5817133242511798e-55  2.8882619149349164e-28  -1.5273063974687979e-30  1.1350546107823467e-47  -3.9770795382306897e-51  4.3219097510170319e-52  -1.0566705253120957e-43  -1.2682961627977765e-39  7.5790257218385409e-15  7.0437256107879724e-52  -6.7711493332393112e-27  5.6246362639573614e-29  1.0027994180750619e-40  1.0898035942615632e-21  8.5101343031014398e-38  -1.3335796963976054e-55  1.7379788241075464e-22  1.1284156349732264e-51  1.5590868531747039e-11  -1.6536166867065276e-05  1.1645588102731642e-66  8.2017887874244541e-66  5.7471795150040477e-20  4.5753091813777272e-14  2.2999067555695177e-48  -3.4590479281510015e-37  1.7017068906102965e-23  9.2869491088933861e-53  -2.2656327016384554e-51  -5.2094345477492813e-61  2.0017543290735072e-13  -1.3516269836095225e-27  -4.5355737258959690e-55  -4.7399491594026201e-61  9.0605025278151045e-43  6.7453385998880640e-60  -3.6501824901000589e-63  6.5527442705787053e-15  -3.6332899575923364e-40  -8.4845515005968961e-51  7.2257481457652670e-35  -5.9104596097806518e-35  2.2680965313699243e-27  -1.1952904038492297e-48  -1.6653625727039802e-46  1.5234158919751863e-43  -2.0358066544410974e-32  3.9827411947992216e-33  -1.4128274888071772e-31  4.0916447638840529e-04  -6.7390972659166787e-12  2.4330872716375174e-12  3.3629690226910570e-59  1.2950882454501978e-61  1.0359824622621884e-56  1.9578494206407920e-32  -1.8861851996589729e-05  2.0475699193298265e-23  -2.4165738047559763e-45  2.5384809755890067e-36  5.1687224475094175e-44  -3.4716361405494748e-57  1.6645440422945300e-54  -4.6127495933557392e-40  6.7640385686818014e-40  1.0118251173074631e-46  -1.5739718760644315e-48  -3.2036521401847725e-55  2.2703596427902305e-51  1.7485778631873913e-56  -3.4358336361061618e-52  -5.4428623406182488e-35  -6.6505539201517545e-24  4.4974132267991506e-58  -3.6992947338367833e-46  1.1919418124260113e-49  6.6427510126362889e-42  1.2338123775882737e-46  -4.6085239567147341e-43  2.5636961845517803e-34  4.4327102594702066e-38  1.7177375559516910e-07  1.4789333428176791e-09  2.0317710984078584e-16  -5.5318620328558969e-53  -9.9347757678219265e-61  1.2679407358260765e-31  -1.2597633148978635e-16  4.9096350857070244e-15  1.2329430824407809e-23  3.3288873110161690e-18  -1.5632119822056863e-22  1.2743991686013070e-26  2.7011513362925368e-48  9.2879369390895371e-52  2.6786981712469386e-41  1.0224779635275341e-22  -2.8242692805518206e-50  5.7370595765483184e-64  2.0652637446540602e-27  3.0001457834986566e-27  3.7119773612660031e-68  1.0284504003792103e-10  -1.5983910930547339e-58  -2.6624953637232242e-54  -5.2870962407760345e-38  -1.7960369237792548e-15  1.6230101511875358e-42  1.7647394268578749e-31  2.6625719839567199e-35  2.2012119590945471e-45  4.0446360488726106e-39  5.5959750775636812e-39  1.5581078551552109e-10  1.4709422758859795e-33  4.2468995381457045e-18  -2.4416936563496536e-20  -1.1315741384240746e-27  -9.7051194941889894e-27  -1.8463532081150262e-26  -4.0559258989225075e-60  2.6656459685929149e-58  8.6216423849399389e-68  3.7541943753016588e-56  -2.0394488557795352e-36  1.9988023136672313e-52  1.1247513318914378e-32  3.2468631559932899e-05  6.3964091742345090e-18  1.8157909691303756e-60  2.4264375250858331e-23  6.2239943621098791e-31  2.7903175607628737e-48  -6.6205919843133898e-47  2.9012913970053581e-39  1.1115347782049598e-43  9.6355073189441762e-63  -1.8904606510597991e-47  3.8345328701223696e-56  -3.1096707430965755e-54  -1.2800547378152311e-58  2.2144537343034503e-51  3.7084226369844747e-47  7.9961941407419954e-21  1.5211361318152096e-16  1.0056943787811716e-23  1.2025316455861352e-11  2.1407632311464057e-15  1.6157836312786988e-47  2.7866745673986764e-09  -4.7618027136097907e-07  1.4941332572056734e-55  2.7261506038814128e-15  1.2501998282268075e-19  2.9907818384855687e-20  -3.9335840525819865e-25  1.8358859376205001e-43  3.3934836311381064e-38  1.2721146719155540e-53  2.3064775336929452e-56  -5.1084996865351200e-55  8.5919225521032072e-54  3.4906979639597531e-61  -1.2269535152715913e-56  -7.5240652671777950e-61  1.9494047269309609e-60  2.4926399085569655e-48  1.0533097223069903e-61  -1.2653543996175179e-32  1.2231683338947896e-12  3.6236484492624740e-05  -3.2197453020254817e-23  8.7639512156811482e-32  8.3084016040107468e-39  2.6711667152080280e-63  9.1395927103644575e-66  -1.0871954998751082e-50  -6.3087970405021856e-28  7.4102577044320750e-65  -6.2724271384380220e-43  -2.6776422251081302e-31  1.2113656151325542e-35  -1.1760391990736472e-39  -7.4465002138691377e-46  -4.1983432878944226e-10  1.3565212196081196e-07  -1.3079012125970974e-49  -4.7843825902155907e-50  1.4539151326790339e-40  1.5910778263217423e-52  6.5461991781547213e-49  1.6567517131208921e-09  -8.6245118913546966e-49  7.9833074620178718e-36  2.8700163419141504e-34  6.0609916191774123e-57  2.5711514576303029e-39  -9.2799556541003113e-51  9.5744080484494506e-45  5.9814206565554156e-51  -1.6554103312742214e-45  2.1756003086529125e-51  -1.1095424527291311e-50  1.9382370390767683e-26  4.3199564384597164e-18  1.2534337077351072e-42  1.0560991679107396e-26  2.2655098276623163e-59  1.1083575002935256e-63  1.4396396032936413e-36  4.2385664312630428e-45  -5.9935920479914956e-53  -7.2607426928954358e-24  5.6582137061790569e-30  -1.1714358971396370e-36  6.3536024906016420e-55  -1.7639592648703432e-43  -2.0625366864556086e-45  -2.9322080934170495e-35  -1.2820068206621351e-35  -2.2188074425939501e-29  -1.2569208820639578e-30  1.4560521557310748e-13  4.8588346151266570e-45  6.3924180030624159e-24  1.1256223992813237e-47  2.7704204236276733e-60  2.7776061368588334e-59  1.4711729658216607e-30  6.1812669113434228e-12  -4.0958383359788789e-28  -6.2368997886625845e-35  2.6791496082306556e-05  1.4963299571067747e-03  3.3951670395456301e-32  3.7985876256354104e-47  -1.4632751424734254e-43  -3.3746475054702814e-38  3.4478812705360124e-12  1.2980033404670108e-54  2.7097402723598018e-30  2.1644993903798544e-32  3.8861733956367691e-35  2.9118634184295995e-18  2.0772516436686862e-21  2.2777272724617974e-46  7.6411315980700454e-50  -9.9759101841400757e-47  -1.4928809954154872e-42  2.3162320083740930e-13  -1.9507202608678470e-08  1.4470743119183967e-43  9.8108872339817072e-41  6.9862621100854350e-33  1.9057053643796544e-15  -8.7785676851647490e-34  -3.6514995489778814e-29  -1.6855841356887988e-17  -2.3038116482245168e-54  3.7825119511647655e-41  2.6912760922867250e-41  6.4114642462121757e-59  -9.8922997449099896e-63  -4.8484072855569027e-42  -6.7291394945638718e-58  5.9109288365371981e-58  2.2169922127919815e-45  6.6312360545623810e-42  5.9412434917436957e-43  2.2583018584880103e-51  9.3847309560083202e-53  -2.4327533215846500e-54  -2.5172430882588001e-04  1.5418765312366161e-03  -2.1871257281105713e-10  -3.2982086003070267e-55  6.4116931422126452e-49  2.6607340618839600e-49  1.4406559191338143e-08  -2.1687633334851574e-40  -3.1225781929810053e-21  3.8498647022997612e-25  -1.1802525599433536e-27  -8.6186448269935366e-40  2.8595551934910896e-40  1.4614167994043496e-20  3.3336878617800253e-37  -1.1773436771730900e-45  -2.2630005118699588e-57  -2.1008101134971761e-58  1.6969870625648423e-64  4.0709743152526149e-10  1.2763966090904456e-39  -1.4844285715479417e-37  6.1289927812495522e-34  1.4797446655181392e-54  1.2717901230236889e-36  -2.0679023357038926e-43  6.9244810851040387e-13  2.5595344038400781e-34  -1.1063278759505627e-37  6.7570335809110079e-52  8.7818101839789772e-20  3.6829272068857610e-53  -4.0071679732436748e-49  2.7182404069579244e-19  -4.0637748877298824e-57  1.1345085951448610e-08  -8.9329637479433744e-24  5.3030784346985804e-53  5.3418351506829450e-53  1.5145361286817873e-47  -2.3552062311597635e-55  -2.4675239877311379e-26  -6.7495920511734195e-22  2.8782389333029679e-61  3.7862278642948841e-55  1.9163105180204847e-20  -3.7362849256015096e-38  6.7316322972650261e-37  2.4786132272297670e-54  1.3113273461188835e-41  9.9521336252867464e-61  1.9558677945812005e-49  -4.0097583848765811e-33  -2.2780832493708520e-52  2.8878076301360089e-26  5.3445389701650641e-10  2.8527688505056040e-07  7.3239973902329897e-06  1.1685074024566548e-38  -6.2079970193028619e-30  -2.1673164141004889e-18  9.0400712275601349e-59  -5.5340473697267255e-59  -1.2656173524998805e-56  1.3670780090510433e-48  2.0372172704390820e-67  -4.5030801490854256e-49  2.4482919478665076e-52  -6.7774720413617293e-30  1.7042653901943395e-63  3.1392314950412108e-36  1.1950862974093187e-51  7.3476869354594934e-45  6.7151028604754863e-41  2.9632467443655907e-32  -3.2880227083937150e-25  -2.0827645289870453e-07  3.5256907865728277e-59  1.8406035491961222e-39  1.6201926585819821e-24  3.1802486882540063e-26  -5.0635272762228756e-58  5.8078730645088722e-15  5.9495556003317384e-18  4.0943887268749716e-16  9.6252543325190251e-21  2.3186563681722427e-45  6.2654105803907347e-26  -2.7673336031489333e-38  2.2925379348026758e-33  -1.0125183337486463e-42  3.5136525901978284e-46  -3.9942540046520926e-55  -4.3607775580096899e-31  -3.7381203599735527e-28  -1.9162252769983181e-13  -2.2879498992535137e-48  1.8515995782858488e-13  6.4022281788855824e-19  1.2815511863271221e-57  1.1771542365228037e-35  2.2638772716917881e-38  6.3438390894189340e-59  1.4491581362252381e-28  1.2173494270337492e-05  1.3579153884506562e-14  1.1575343078032653e-45  1.3688553975157601e-49  5.6558622954872913e-35  -4.1544212444770584e-50  -1.1400933467431574e-56  4.2706432869568663e-30  1.4139667726737367e-12  -9.6303650622653051e-56  -1.6165482416945773e-24  -5.7942769797767508e-27  -7.0188544006230957e-25  1.3776402153760531e-53  8.8156676185647063e-34  2.1305903420892014e-29  1.7367160875087559e-44  8.9737831934203740e-09  5.3159668535393665e-20  -1.7635224699938376e-55  3.8177036686665805e-28  7.5111711905865250e-45  2.1158968927963393e-49  4.8559392189729309e-53  4.5198108371345596e-25  7.7390806989712526e-21  6.3131475321125410e-38  4.4530112532379670e-45  2.1757146110448422e-49  4.7626850598177706e-53  2.6487107337834683e-16  3.4708776217638458e-33  -6.8673237423947389e-53  -4.6406962377206571e-49  -8.4404561850425732e-49  -5.3322191133790986e-29  -2.2215033619197216e-42  2.4172663523125939e-32  4.5574535493637897e-48  2.6647820498425807e-17  1.2092421058274889e-54  -3.1548477292807212e-32  3.5518965006655769e-23  -4.3915539435965913e-43  9.2642806294575984e-66  8.0629548559712701e-16  1.5197605054097426e-42  2.9985090617937583e-30  1.6821295662124846e-20  -1.1899725063726706e-52  7.9548392383501614e-37  9.4083485103011534e-17  -4.3916713046300456e-52  2.0707191053049442e-62  -1.5081269862469773e-55  -9.3895070635758675e-57  -7.2130449273085469e-21  1.0248097700229285e-09  1.0894985806992605e-29  3.3230607041695179e-10  3.5393454338354907e-41  5.4915695470341503e-36  1.0331851255205559e-21  -2.0182391827594503e-50  3.0933468917607433e-50  1.2114956255667119e-24  -5.2718496418977383e-51  5.4580358766098034e-16  2.2733117140292140e-35  5.1842594723890668e-08  -1.4538013225729708e-46  -1.4610901713436440e-14  -6.4652735331961199e-17  -4.2256626660990503e-25  -8.3568075575391725e-30  -3.9024262184505042e-31  5.2277422221880357e-40  5.5638314382728489e-42  9.3802585027356981e-37  1.9504640040753703e-11  6.9496414919311284e-53  3.0209856505493667e-59  1.9782948329000040e-61  -4.3489612482376482e-48  -9.4466121484163965e-22  -4.4880156257589605e-60  -2.8833196091616703e-14  -4.3858579192443203e-24  4.1947117806345145e-23  -1.6809950728142849e-44  2.0687207073589156e-29  1.3605736063404638e-32  -7.1143928611447887e-53  2.0247237517963800e-34  2.8459334896129689e-60  3.8731870866203397e-57  -6.8935819414288270e-46  1.2866711407224389e-54  8.6007798139694333e-38  4.3047232971357542e-57  7.0759008953276778e-47  -2.0635374837558166e-37  1.4286272814256966e-27  6.3023018580529669e-13  2.4657280354069961e-61  1.1558807997858060e-59  1.4852330903169884e-54  -7.6996182862337044e-23  -3.3869555133375611e-36  -7.8729382193066605e-34  2.0666983218100142e-41  8.4456664996770354e-62  1.0557870124400647e-20  1.1956916453205827e-48  -3.1911998863523503e-19  -3.2833943405788102e-18  4.6970934441491905e-47  4.9568711981460660e-33  -4.6281682713621189e-40  1.2774887674165144e-51  2.8143596590298254e-51  -4.5402847742940363e-27  -2.9098260568417016e-16  2.5280761915620972e-30  2.4040136932249918e-56  -6.8475882544426391e-47  -2.1472591579786994e-40  2.5879233516450417e-41  2.0599835366578611e-42  7.6999321488742163e-48  1.9192722199904781e-39  1.0609261222372391e-54  1.1684074354945741e-50  3.2258304040948657e-29  -4.0947045111450070e-61  5.5722397860830213e-49  7.5982318792776804e-49  1.0746976825501172e-45  -6.3315256990495766e-63  8.5046722646455394e-61  5.4713208708000557e-62  -8.3799278266481462e-58  7.9147884677635433e-48  -9.4421678878928439e-51  1.1944295440091869e-17  3.7384691537583916e-18  1.5327150125331038e-37  6.8311339309387516e-54  2.1644606485552304e-58  -2.6369679749820333e-40  1.0311901891496651e-64  3.7972930545907769e-61  -3.9660303450733165e-29  -2.2039436272150076e-31  7.2589297497180782e-56  5.6971968601047669e-44  -1.4963969670930924e-36  1.6855211367897981e-18  7.8031143465645670e-50  2.6396978090711854e-51  1.7565430645639492e-53  6.3982324088752578e-05  2.9480942122042387e-04  2.5677917951419146e-06  -1.6468597984568883e-40  -4.9901975814874917e-57  7.5998892329840780e-44  1.4355919453583960e-11  -2.4281873637947793e-59  4.3645666453152594e-47  3.6407572437209375e-35  -1.9836107917609346e-39  -1.2276346515376669e-49  2.0061414654332553e-66  6.3312559686960556e-40  1.1010405765554312e-56  1.0064870199675457e-63  1.5790537559752732e-12  -1.5314964958336029e-29  2.3080018921084759e-38  1.7070511082329002e-54  1.0702687507256984e-58  1.4267006234766527e-36  4.9590258627521405e-47  -1.8494653158204226e-13  -2.0949780431244759e-36  -2.7354982642958928e-65  2.8184158761538237e-31  5.3142691065150536e-15  -9.2051892782983717e-27  1.0652139524559412e-43  5.2921587262252727e-22  1.6411863098929257e-28  3.9304090506618286e-22  5.8635429246446571e-55  -6.0750553603539266e-43  5.5333054335507680e-08  7.3051439589723785e-25  -1.8972342515022109e-12  1.8120025359934344e-15  -4.6569941441203120e-15  1.4803193781417731e-09  -8.9827008391677598e-10  -1.1159091213408589e-58  4.3617975381420947e-61  1.3941469884638958e-32  3.5014405612012694e-30  9.9302799823741864e-31  8.8394697735665671e-26  5.8003601667250913e-03  5.1476691741270456e-47  8.7729494856648204e-55  -1.8108660430455264e-24  3.2029494812583418e-57  2.1693142521646867e-55  5.2712183788063161e-61  2.6804373330372526e-45  6.4002664425369445e-59  2.2232189238688718e-23  2.3178950451412621e-53  1.3536681965636949e-31  -4.8545221704034128e-52  -5.2116264110981447e-53  1.7757045824124831e-08  1.0166929469707050e-06  2.1530218705547494e-55  1.5940407507594951e-30  4.1526588234682099e-63  -3.3596368480237231e-07  8.9168222701168113e-41  5.7910715992501303e-60  2.1879924583401406e-13  1.1383571954271716e-13  3.4160937236744752e-38  -3.7829564920167948e-51  -3.9696837968004151e-33  1.3415536012851243e-22  5.2851743400447386e-62  1.2113984413078671e-10  -1.1785225536613313e-52  7.9557253196942526e-50  -8.7972061582366788e-22  1.7891217202004080e-50  3.0115435678452369e-06  -6.0009218112017640e-32  -3.8987732620375894e-48  2.7948856829457660e-44  1.1683810597819126e-39  1.2611893132175442e-54  -9.5410097511928336e-41  1.1710979783024098e-39  1.5410213521451922e-25  1.2176155756257340e-41  -1.9037099508224596e-49  1.5400124885870070e-57  2.9535018735187200e-58  4.9370224477555402e-43  -5.4196735893212855e-20  -3.7958944904326198e-56  3.1431013915250040e-60  -4.1653571873707287e-28  3.8888693627767216e-67  2.2334420324669502e-55  8.3041188013947945e-65  9.4241607519325804e-49  8.5432689815154470e-51  4.9519259862286337e-58  -9.2426605189258281e-30  -9.9187225413668509e-55  2.2803284891183492e-62  -4.9659554364284645e-42  1.8448927940325209e-37  8.3095889807053188e-62  1.8060636722291567e-60  1.1165955740436390e-62  -3.1294954408857024e-15  -3.1699953890454803e-18  -1.4759063338718240e-21  6.6042154603327842e-57  5.5906629660661542e-08  1.9113124384390843e-20  -1.4663539518937434e-45  6.2175655869810346e-37  7.8683801777520003e-52  3.3762215276686329e-10  6.1129468275102623e-45  -1.3901399241577507e-59  2.1337468014505362e-13  -4.2387362405784461e-34  1.2262038920105681e-05  7.6310297403962479e-05  2.7538771357592199e-61  9.9250898481003431e-68  1.5235149503833253e-68  3.3836959558540599e-69  -1.6698993273342924e-25  -7.5862488409852626e-59  5.7134640460369059e-06  4.9057850035165105e-64  1.0876907973505805e-65  9.9488407132606243e-61  5.2883902142398366e-44  -6.0645318479796280e-50  2.3642400742630415e-34  2.3419023117974775e-54  -3.5446088562416740e-32  5.1140868430006774e-56  9.6939081481170829e-11  5.3540633339978604e-10  3.5919142372710992e-08  -1.3713365417513916e-57  3.7232750972920133e-12  3.8344704616994011e-17  1.0384302955506932e-06  -3.5191508110522823e-40  3.4541383101055527e-24  2.7450836628827653e-22  -6.1192452730507076e-46  -5.9926358344963498e-26  -2.9209044142014690e-27  -1.7123499944350901e-29  -3.5524508596764512e-22  1.0746128824215892e-08  1.8650457074335879e-05  1.4324295546114449e-53  8.4791579967207750e-46  3.9283668488179493e-42  -5.6226347844379216e-53  1.6362302325581927e-12  3.2318091580074442e-60  -2.3579622254517249e-27  -2.4521313575559033e-45  8.0098653294195663e-25  8.3461890838589025e-16  2.2718149610963706e-35  4.4636381577352111e-43  -1.0915401723632419e-32  8.4602567970002787e-19  2.1643853904681008e-22  -8.9216292756747750e-47  -1.5266309734233491e-54  -6.7376183242343248e-15  6.4911992267314231e-52  4.2406874283741460e-53  -3.4240487232440126e-29  -9.5150237586657655e-40  8.0300959760647971e-17  3.8492902371098335e-42  1.0603683607303329e-11  5.8830664057471560e-57  4.6216016983462582e-33  5.0499780875807941e-35  2.5307098253979667e-50  -5.4234413911757257e-47  1.2543346110879284e-47  -4.8414394658448738e-52  1.8947675374306806e-49  -4.1124250989230117e-45  -9.1698939043676700e-24  -4.1539267561479230e-46  -2.1376496042176243e-35  1.1337073896706550e-28  -1.4036655640655737e-36  -4.5349871559399227e-37  -1.1061372593228378e-55  -3.3848096355737901e-33  1.4976308536514910e-42  -7.6071482883123846e-44  -1.1219317950186423e-41  -2.6772305256220754e-44  -1.1116264942625889e-29  3.9339948652927831e-31  -4.2689065883631004e-33  9.9932380665768273e-25  -9.4933348314288832e-53  3.1206354269296521e-50  -1.4895789978573551e-52  -3.0419041772724046e-46  1.9516005512638096e-45  2.3237889101823278e-47  -5.3879500731441821e-55  1.8391057818476405e-38  8.7659716850780420e-34  2.5699401975128535e-56  1.4299798862587113e-58  -4.1197629638708254e-53  -1.2669639830541836e-36  1.7890465183735983e-28  2.3160846198738350e-20  1.5925942060391097e-40  -1.0489910083979516e-47  9.3501217807552344e-17  8.8179586909304737e-31  1.3150104840301648e-56  5.3216369885743290e-11  1.6113718493633880e-45  1.3827346727346802e-56  2.1341643133029225e-56  2.2056283859880464e-63  -1.1220179652074196e-50  2.2007225492729688e-50  1.6664524235060747e-26  9.3092834166516598e-38  3.8394758314312198e-32  1.0704610285072906e-22  1.7891512122000628e-48  2.5390426363042170e-51  1.3343515168659808e-37  -1.1522368778688232e-56  1.0815392961070906e-24  4.0395465215606593e-35  5.9053386608252772e-27  6.7547969687256771e-25  -4.2357845378207886e-48  1.6456398426458186e-52  3.6118098825839588e-46  1.3261154172604069e-51  7.1620139802168132e-46