<?xml version="1.0"?>
<VTKFile type="UnstructuredGrid"  version="0.1"  >
<UnstructuredGrid>
<Piece  NumberOfPoints="6486" NumberOfCells="12696">
<Points>
<DataArray  type="Float64"  NumberOfComponents="3"  format="ascii">0 5 0  0 0 0  5 0 0  5 5 0  2.5 0 0  5 2.5 0  2.5 5 0  0 2.5 0  2.5 2.5 0  0 1.25 0  1.25 0 0  1.25 5 0  0 3.75 0  5 1.25 0  3.75 0 0  5 3.75 0  3.75 5 0  3.541666666666667 1.458333333333333 0  1.458333333333333 3.541666666666667 0  1.875 1.25 0  3.75 3.125 0  1.284722222222222 2.326388888888889 0  2.683189655172414 3.767959770114943 0  0.9375 0.9375 0  4.0625 4.0625 0  0.7252209595959597 3.026357323232324 0  2.763480392156863 0.9129901960784315 0  1.875 4.345238095238095 0  4.345238095238095 1.875 0  4.192708333333333 0.8072916666666664 0  0.8072916666666665 4.192708333333334 0  3.368055555555555 2.326388888888889 0  0.6837606837606839 1.738782051282051 0  3.285485245626782 4.324328415208927 0  2.551239698778062 1.693130150610969 0  1.827256944444444 2.868923611111111 0  3.464875022477093 0.6813924607921316 0  1.942880513719175 2.059558626187995 0  3.04563492063492 2.971230158730159 0  4.375 3.4375 0  2.13639445139758 0.5994472256987903 0  4.272228422619047 2.606956845238095 0  0.625 0 0  0 0.625 0  5 4.375 0  4.375 5 0  0.6400043240752655 2.384646170113389 0  1.347691225855598 1.660875475110776 0  3.515783617857982 3.723905460714006 0  3.125 0 0  1.875 0 0  0.625 5 0  4.375 0 0  5 1.875 0  0 1.875 0  0 3.125 0  1.875 5 0  5 0.625 0  0 4.375 0  3.125 5 0  5 3.125 0  1.489644181965304 0.6007147273217681 0  2.054597701149425 3.742302955665024 0  2.662520990197781 4.39452575763237 0  2.415835363784578 3.165530021913244 0  0.8679986894865213 3.602373689486522 0  1.267459753787878 2.886186079545454 0  4.099702380952381 1.365327380952381 0  1.316964285714286 4.438244047619047 0  3.7915135293491 1.959691594758709 0  2.875141124191255 2.118761176511833 0  3.00418010501169 1.397414179299248 0  0.4081721322167092 3.410647930198662 0  0.4166666666666666 0.9375 0  1.014190407998288 0.4422301359994293 0  1.383260571305984 1.162718286082048 0  4.53125 3.90625 0  4.453125 4.453125 0  3.772848162504192 4.48678272083473 0  2.8125 0.404329517041716 0  0.4538690476190476 0.4538690476190476 0  2.305461739347387 1.04517007574828 0  3.771263799175824 2.624190260297553 0  3.229617768018734 1.809956994202883 0  3.780190884441317 1.025307111692601 0  4.646337365591398 0.9375 0  4.537623451379149 0.4609485750426037 0  1.200477888421151 3.934852888421152 0  0.3536626344086022 4.0625 0  0.4623765486208503 4.539051424957397 0  4.0625 0.353662634408602 0  4.560525106689535 1.390989100915847 0  3.958439078571988 3.619844539285994 0  4.672619047619047 2.1875 0  2.1875 4.672619047619047 0  1.862808494877602 3.325947624431087 0  0.3268135998175443 2.8125 0  4.674181280189791 2.8125 0  2.283233994935276 4.138623547175983 0  0.9375 4.677879119362977 0  3.08488061581743 3.469889594488945 0  3.113427375573758 3.913955730709506 0  1.652847799068813 3.950848935641292 0  2.932652662909449 2.550542739521724 0  3.311350648514189 1.088831994878698 0  0.6770833333333333 1.295851139601139 0  0 1.5625 0  1.047214787840024 1.96818092308125 0  4.183331482095785 3.03958703580843 0  3.4375 5 0  1.071307777252521 3.246275861010018 0  0 2.1875 0  0.386576856303419 2.03125 0  1.713862716483534 2.439783116849799 0  1.775396256975935 1.665976816304977 0  2.231236976948428 1.443917394671254 0  2.373900732409897 2.086930260150635 0  4.114918237574474 2.221646174618671 0  3.661302567757379 4.099620139144836 0  3.378215938602977 2.734494874063393 0  0.9842097536079312 2.597286741306247 0  1.642795138888889 4.672619047619047 0  4.0625 5 0  2.099458800960004 2.567446522665629 0  2.616202751603346 1.297895893940078 0  5 4.6875 0  0.9937554350075428 1.512592975947215 0  2.8125 5 0  3.002695327068194 4.614055254615477 0  3.205627424097207 0.3852436382721472 0  1.678616581261621 0.927556612265266 0  3.365326698305438 3.196943731162083 0  1.554834936170314 3.120009882655813 0  3.108408340729323 0.7797187795784133 0  3.684368918102174 0.3728877601163941 0  2.716214835303553 3.39276351922003 0  2.37718583984784 3.551973401560441 0  0.3750662445374837 1.52191994866787 0  2.679073487930202 2.844160731602957 0  1.557635869750078 1.991068682985722 0  1.812595698561088 0.3839273018252746 0  2.512014721281916 0.6320641118792227 0  2.1875 0 0  2.349973454443689 0.3189980586887866 0  4.6875 3.59375 0  4.636052949022233 3.178355898044465 0  4.6875 5 0  3.345485909784306 4.665765449101383 0  0.536727472389443 3.749603193819277 0  4.349541499640203 1.116201826262156 0  2.886559045931982 1.774013674579691 0  0.6770833333333334 0.7142857142857143 0  1.5625 0 0  4.120842096538671 4.628726497527622 0  2.176157474177018 1.793470423744689 0  2.175650736889416 2.909863021769539 0  4.036616464259081 1.709699085170981 0  3.887974623473683 0.6492597046022868 0  3.4375 0 0  3.70675699592552 2.289666624772415 0  4.697265625 4.208984375 0  2.815177577303495 4.085937578239174 0  4.672619047619047 1.730733296184288 0  4.6875 0 0  5 0.3125 0  0.3125 5 0  0 4.6875 0  0.3276089296588581 2.484526834811734 0  0.712433309515852 2.065138854645612 0  0.6376435912223634 2.711473454001295 0  1.184991292170422 0.7222504400947201 0  1.31884329779317 0.3206944232264773 0  3.683609198994263 3.44428698533042 0  0.3125 0 0  0 0.3125 0  4.231797269642997 3.789141808928991 0  1.564375596050781 1.425998687184973 0  2.007640894175573 0.9032106925568466 0  0.955125897558294 2.276666098587227 0  1.43898735721003 2.611310720271951 0  1.954491523717513 4.040700257877075 0  1.752947649777421 3.652439445419346 0  2.509575750247638 4.678021307664052 0  4.687194709705067 2.499965519538002 0  1.5625 5 0  0.9375 5 0  5 2.8125 0  2.1875 5 0  5 1.5625 0  5 2.1875 0  4.0625 0 0  5 0.9375 0  2.8125 0 0  0.9375 0 0  0 0.9375 0  0 2.8125 0  0 3.4375 0  0 4.0625 0  5 3.4375 0  5 4.0625 0  4.010848109290813 3.306446973933037 0  0.3077461147713075 3.119700563473354 0  4.6796875 4.6796875 0  2.333079012424948 3.845757959077508 0  0.7829771267899832 3.317744656243421 0  1.159100632608513 3.532487125138763 0  0.799066251840424 3.893573750162776 0  1.57326499580282 4.255438189102632 0  0.7309366047093668 0.2991402264438908 0  0.3054777494262156 1.223275888123843 0  4.027475154280377 2.78211326942427 0  2.35270874745988 4.426658168476266 0  3.474236283732569 2.021154281686229 0  4.401414236174444 2.329446628171927 0  3.39403781747337 3.987097102903034 0  1.077524329801934 1.214100792470484 0  4.065611571711903 1.066085524514197 0  2.165399002716117 3.335637450367864 0  3.007639563081306 1.093684039371638 0  4.030818285732145 4.351883315180857 0  3.504115222530889 1.739284194222036 0  1.224503368215566 4.712091441401919 0  3.805634204685714 1.321528442399996 0  4.319233123479386 1.573547993867769 0  1.024007670021325 4.394604704797005 0  3.776400432023095 3.839003324979723 0  2.991819819453308 4.320567175146181 0  0.9782797534072181 2.886406017887129 0  1.763835134082104 0.6602345487826022 0  3.765182288741625 1.631193038541544 0  2.267959593989681 2.345053543725764 0  4.412434895833333 4.168294270833333 0  4.4072265625 4.7255859375 0  2.791493971314009 3.11210833271929 0  3.408766223032414 3.469500900677365 0  1.915147569444444 4.725484476461039 0  2.070301968506271 0.2605666686358055 0  2.767932250651506 1.530295992695836 0  3.280065043173439 1.364863281105779 0  4.45101570110842 2.974157152713635 0  3.521928862999512 2.96990445010402 0  2.552921961347576 4.008414007169315 0  0.2682955376854191 3.657555015841003 0  3.084522868361304 2.310593316718068 0  2.669255823227708 1.939379494498064 0  2.615884629473921 2.238841231570381 0  1.405652091971449 0.8877813821442277 0  3.25151486618811 3.68536115104276 0  1.963741569810629 2.331207252264507 0  4.017297980292599 2.486269171379106 0  3.869168920841219 4.748188103831625 0  3.596868753579134 4.77342723825056 0  2.41262958240343 2.764128584995838 0  1.266750578673391 1.404747710001619 0  1.559243962241121 2.85146506328516 0  3.128799423834764 2.052081657715259 0  0.6770833333333333 0.9778025793650794 0  0.2083333333333333 0.78125 0  1.978224492765132 3.087074731032578 0  4.051448850909273 1.969392119104174 0  1.320577095006813 4.172234780971559 0  3.214261103850064 2.534397293281829 0  0.2635729089754111 1.779234736680035 0  3.510775680035133 4.460728640112889 0  2.603081405968802 0.2432579385496493 0  2.866341315154884 0.6662105505481998 0  3.000919221100777 0.2270278495648781 0  1.298858304121393 2.05917319923859 0  2.020292299736597 1.589794568392338 0  0.7401688396476035 4.470780315741533 0  0.6721783535561408 4.733125588707921 0  3.753712482075402 2.874301339727514 0  3.557348205914658 2.491958694539413 0  1.094565978195436 0.2011034254079851 0  0.9338148378011396 0.6833568465908735 0  2.945530578578538 3.701798332963805 0  3.111707186654356 3.216904195825605 0  1.341791111822685 3.293123262233967 0  1.632939924064587 1.184895891095613 0  0.6335477978936732 3.517393619499591 0  0.5576014611130192 3.210998966942492 0  1.564344196470102 0.3630498725895039 0  2.75362450242839 4.626680495816594 0  3.571304405229554 1.192452351107437 0  3.522934592621944 0.9359134489437148 0  4.453125 3.671875 0  4.765625 3.828125 0  1.055906321410838 4.14310472322957 0  4.795146539102229 0.46875 0  4.767156345199235 0.7178596932040019 0  0.2048534608977711 4.53125 0  0.232843654800765 4.282140306795998 0  0.5393715189906129 4.270810883024032 0  4.329922600274667 0.2750645887059072 0  4.275515096738972 0.5448389557295173 0  4.477747423652795 0.7252838358993123 0  0.2002829820452772 0.46875 0  0.4352678571428572 0.6956845238095237 0  0.5007241582667088 0.2123388122114133 0  4.672890923830735 0.2500902110494848 0  0.4308009280819452 4.783624996516437 0  2.104871305393774 4.438653689007242 0  0.2274454167838428 0.2274454167838428 0  3.446466574593436 0.4359605369011901 0  2.12354112127588 1.217588426759619 0  2.309175236825235 0.7888355970690434 0  2.556178570281936 1.054299163237582 0  0.578683248637
[...]
<PointData  Scalars="f_16-1"> 
<DataArray  type="Float64"  Name="f_16-1"  format="ascii">5.2602656348811119e-55  1.6123461424924260e-04  1.6334397515461439e-53  2.2325232929269187e-79  -4.4193719456344917e-25  3.9391536604124401e-63  4.4814155041312928e-62  -3.3235235869175821e-25  3.6926200604326114e-36  -2.8421827449869219e-12  -2.8719022414940977e-14  3.6768970284899118e-59  8.1995200766173184e-41  -5.0759380419525699e-59  -4.7505831872820386e-39  2.3188939090071049e-69  -3.3698916328366911e-69  4.0083577004254170e-43  -7.2644087442724362e-42  1.1249171888640080e-23  5.8823563736767901e-53  2.6069944752780665e-26  -5.7747447483251950e-50  -7.8118133209232637e-12  -1.1843651404194248e-64  2.3710497739878304e-33  -5.2446089927749737e-32  5.7863239384428504e-51  -6.3496754945390442e-55  -2.2148944117228850e-48  2.4006333596786904e-48  -4.3288026102103340e-44  -1.0343912634357539e-16  6.0801187130386761e-59  -1.1877075647546747e-33  4.3398926177006914e-34  -3.4710602042700155e-40  -9.7452218756997156e-29  5.6666874573800264e-45  -1.0098743299144762e-61  5.2959504873301663e-24  -3.9913759890023425e-56  3.5186104370282367e-08  1.2841016099636413e-05  5.7607092256137409e-74  1.8021083436673811e-74  -5.2133870104263355e-25  -1.4058506309431935e-19  1.8032720398147397e-54  4.1012547921525814e-32  1.7372086615641192e-20  -3.5257309634797006e-57  -9.4464379066827215e-46  -4.1323493373656849e-61  -8.6274366027769671e-18  5.0081390354174059e-34  1.6564545746033235e-59  1.0501204212673886e-54  1.5060795252480204e-48  4.6742747567405189e-65  -5.3869185713549609e-66  8.2693129196815116e-18  1.9071718224306649e-45  2.3336577179115794e-56  8.7990595341545875e-43  -4.3845027520252859e-41  8.6443002658554517e-33  -2.7696352987892349e-49  -1.0627383960340386e-51  2.6827405044042516e-48  8.1878991106376449e-39  -2.1180430473118608e-38  -5.7450628107828367e-39  -1.9827492881368354e-07  -7.0612322084700127e-12  3.2888783890823652e-17  2.8878188932433304e-66  7.1875614500193175e-70  5.8348774082169152e-64  1.9728476885832052e-31  -1.1255208947730462e-05  -4.2585637306493242e-29  5.7249705001953649e-50  -1.8984864015671197e-40  -1.1763116225531415e-44  6.5593281851384587e-54  -3.6804084424238737e-51  -1.1764876629476619e-45  4.1803112290818950e-46  5.4639890529753678e-51  -5.7365828761655416e-44  -1.0304988727376667e-55  -1.5176744521056663e-58  -3.0940226977460880e-58  1.0391497090368680e-56  -9.1047920270647816e-40  1.5693814239242388e-30  1.5326906832922798e-61  -1.9744052659761591e-51  1.4133803375609705e-54  -1.3886040439650501e-49  -1.4781006439268667e-53  1.4406072792670631e-46  1.0058462449184907e-42  4.7640926950457847e-39  6.5792435014853228e-14  -1.4348653620074505e-15  -2.0328791542103903e-20  -3.5377694067106483e-56  -2.7559187156086672e-67  1.7595403955625459e-36  3.0084326183651078e-21  1.1551518340376999e-19  5.0134943058792095e-28  -8.7700984343011198e-26  -8.8648302864702825e-28  2.7230847446530060e-32  -2.0860302654985935e-52  -7.2945613226419572e-60  -1.1829678613719096e-45  -2.5907679573790397e-28  -3.1132122828370270e-56  -2.9199664281031678e-70  -9.2207511388640436e-34  -1.8388623247207510e-33  3.2710794051065181e-77  1.6616669061076429e-16  9.1021887922715719e-65  1.0971133617112469e-59  5.5634912180449735e-35  1.3428771743238476e-19  1.0863399485403700e-50  2.1280752158731172e-36  2.3171958185867172e-36  -5.1954253044220795e-40  8.4057479267239036e-45  9.0305124062904115e-45  1.6380482925286902e-13  4.2698331808401904e-41  5.1144087456113676e-24  -2.8330801173003691e-20  3.9421989781781246e-28  -4.7299242917295391e-23  5.3978976035751352e-26  2.8105581529939704e-66  4.5948359029935130e-62  -7.9172202930606725e-77  -5.3735214818691690e-63  4.4543275364698557e-43  -7.7578122509258273e-52  1.2177642990906631e-35  1.4324101751765586e-08  1.1708680693789135e-17  1.9911737302333483e-67  3.3271444555735476e-29  2.1701797465426920e-36  1.2593697635242544e-50  -2.2449750223672589e-45  -1.0256735373119136e-35  -3.9678686024496781e-48  -1.7880775401068042e-69  1.6979531098036647e-54  -7.9199822068169761e-58  2.7466832832759028e-49  -2.0882910339732482e-53  1.5091444523345088e-55  2.4275360127948804e-52  1.0019190129158589e-25  -5.8367164493020150e-21  -1.4627433687946357e-29  1.3098417045364498e-13  -7.0363263460830125e-15  -3.3470195034789451e-54  1.2163389627795809e-05  1.5242117035460172e-03  -2.1805399252859715e-61  5.7163159299598673e-21  2.4342712798970244e-24  5.4241079463633842e-25  4.9547313392062248e-31  4.8016519339581547e-49  8.4122014789625858e-43  -8.7663114167996669e-59  4.8017263419632653e-60  1.7064255137663429e-57  -8.6170788620188342e-58  2.2587404723272346e-65  2.2903274067587005e-60  -1.0627144019687663e-60  -4.9901268486226359e-62  3.5949696938346389e-42  1.4801250903464364e-56  9.4074552911566299e-28  3.9438388071375872e-12  -4.2472646717023136e-08  2.2768895024905904e-30  7.4135595391636644e-37  5.7274341802305348e-44  1.5621734943587815e-66  1.1521801798574663e-71  -1.8471589361615292e-56  3.5182331356137408e-34  1.3452255959762420e-73  3.7770337641060419e-48  -5.7367684607989985e-39  2.4404846416657249e-40  -2.4846131575787860e-44  8.9923665831057222e-50  9.2113026032423340e-09  5.3637320154897507e-10  4.4003889508244950e-54  -2.1790652473564286e-55  -4.0991595126786357e-43  -9.0448582649817036e-55  -1.2003680817970375e-55  4.4697969529801374e-15  4.0824512935888928e-48  1.3174513794758080e-41  -9.0212595972931165e-36  -8.7236635395981403e-65  -2.6924825271354239e-43  1.1350738508964021e-54  -6.6451330934904833e-46  -2.4342086793536813e-52  -4.1543446978868402e-51  -4.6338006644671233e-58  8.3806738632925033e-57  1.3987459470235772e-32  3.3625514890303262e-21  -3.3204405258573383e-46  5.9713109816602380e-33  3.7199686845264782e-67  1.0763283011726908e-70  -1.7708440541832271e-44  8.7510541638374252e-52  4.0836963166735049e-56  -2.3717649491464960e-23  -1.2819044578221310e-34  1.4188805889173191e-41  -1.2770594491712828e-58  -8.7978708360642484e-50  9.3190123250823469e-51  1.3898297143239119e-42  -2.0157913086311027e-41  8.7218482195241329e-35  -2.3327264393092798e-36  1.7787808927783654e-16  2.4799862074016330e-52  -1.4367146047180645e-29  4.1193099330034935e-52  2.5391007114270868e-68  -4.1007287859019656e-65  3.9736897452952905e-38  -9.8497107713671914e-17  -4.6212408655754102e-33  1.0069950832634322e-40  7.5545336039195518e-10  7.3627564030198714e-07  5.0752711454545694e-37  1.2377853047260655e-50  9.3130739320781355e-48  -9.9770053832833922e-44  1.1085682108885101e-16  -8.7382481749450603e-62  1.2579690361214645e-28  -5.2697277440660230e-33  -1.3030814158165205e-31  1.1853659974085676e-23  -6.4456799742014566e-26  -7.1164814797977944e-53  1.8125243632091683e-55  -3.8030542453978137e-52  8.7565953919767119e-47  1.3158900045104052e-12  -3.9740776340789706e-12  3.2062005154759071e-51  5.7722921220772136e-47  -1.9472702753272697e-37  -1.0564897029854525e-19  2.8526399090190196e-40  -1.7469101760439094e-35  -1.2417931955916593e-17  7.1345011968441676e-59  -1.5941617134158869e-42  -2.8319926076871129e-42  1.6838604066646086e-65  -1.0033989912195020e-68  7.8132570599433512e-48  4.4627018635706747e-52  -6.9039755836666141e-53  -3.0639863160579650e-50  -3.3095186656089564e-47  -1.9455803713055049e-49  -1.9806169278862518e-46  -4.6832508707259123e-48  1.1742214033286732e-49  -2.4876050374719163e-04  6.2578880094658798e-06  -2.2749786355489260e-06  3.0688237166241275e-49  -1.9567042904315844e-55  5.5653839282962870e-54  4.3142292866725127e-04  -7.1275285590033576e-39  3.5665166118492294e-26  1.4664133221632610e-26  -4.2793305319199734e-31  4.1523065151758601e-46  5.0318648125388902e-47  1.5711857468515567e-26  -1.2423456130119437e-43  3.4952084809601370e-41  -6.3457891972634179e-56  -4.8660336869622012e-59  -1.2922286597799378e-72  -6.0517628212097370e-15  1.9007291393859520e-45  7.6046199181484637e-43  -1.1868923526563231e-38  -5.7147567695941196e-59  -1.5927384412631039e-44  -1.6097710845100605e-42  3.4516241707318230e-18  -1.6791124208829706e-39  8.6603553466811363e-43  5.2147859027092135e-52  -1.1290548017957069e-19  8.6487219755978497e-57  4.9440683834695872e-54  4.0888238464919427e-23  1.1782310265202597e-60  5.5236114171989171e-13  4.8536067584489899e-30  -1.1315507300816719e-59  -1.0331228649840544e-62  -2.1163790880469253e-45  3.2418106732241360e-60  8.9853514445021317e-32  8.5090752127713826e-29  -1.5231648177306588e-64  3.2330427260134597e-58  1.9059698089635750e-26  -6.2996982380072425e-35  6.4082617734760349e-41  3.2522877320969686e-62  -9.8430132892255415e-39  9.0823897527780784e-65  1.2624850199291045e-56  -8.5936019675381162e-39  -2.7427515123589239e-56  6.5093046048372097e-32  4.3865392399514872e-14  -4.4753421856597407e-12  -2.9832454092246222e-10  -3.8599283642522223e-39  1.1194964442912100e-36  1.8012450295257330e-24  -2.3848750303127738e-63  8.1278683802967624e-61  -7.3880583639458286e-61  -1.9698755334174728e-54  -8.7434101037261920e-77  -5.4651051458819566e-55  1.8763943946135284e-56  6.3890182336553672e-34  -8.3387342602956547e-71  -7.3902350089772816e-36  -2.5077098050548727e-58  6.7869680090910626e-48  -4.1405749324140294e-46  -1.1246247192846486e-39  -1.7211262087805978e-31  -4.1095757336834820e-11  1.1366880964389967e-68  2.0867246285040728e-47  -2.8732107034920111e-32  -1.5214186225684364e-33  3.2914832538364362e-63  3.9800611098247693e-21  1.3628117653131272e-22  -1.4654645932662963e-22  4.3853067144730150e-27  1.0614669359620808e-47  -2.4809048123913285e-32  -1.1231854402819155e-43  5.5790003313287592e-40  -8.4128228555222321e-49  -6.9478302595171918e-51  -8.3360692429314764e-58  -2.0019601311209944e-36  -1.6250001033442007e-28  1.0990393777529749e-14  1.1737799086237861e-52  -1.0587934495186363e-17  9.0669784608176001e-26  -1.6705432952526373e-64  7.5724236772748360e-42  -7.7938759585315711e-39  1.0889417651135550e-62  3.6609640154741047e-33  -1.2883722630238612e-09  -1.3854874272699723e-19  1.4766554306743011e-49  5.9793268542106564e-54  -2.3795077383267573e-42  -3.7016814058117886e-53  -3.1768429557611891e-62  8.1390529427864882e-35  5.1137607756526369e-19  2.1429983975054686e-51  -2.3946832276424570e-29  4.3888554010606508e-30  -4.8890345112979029e-30  1.1605320825665471e-50  2.7209569761225897e-38  -2.7738397750767078e-34  2.4313210878693464e-49  -5.7132876622074409e-17  -2.8694968493361751e-23  1.5663411435316999e-58  -3.9446082839914586e-34  -1.4398347556573670e-50  -1.2775848473924113e-57  1.9911867566475998e-59  1.2719273403547888e-30  -2.0663834416447015e-26  6.3877407972023578e-43  -7.6620816775196028e-52  9.0906190453699981e-59  2.4228676894473048e-60  2.1666028982254976e-17  6.8353869078289762e-38  -1.3967244600942802e-58  6.2841052498806843e-54  -2.5866424355503527e-45  -3.1847848314550596e-28  -1.1892235213798702e-46  1.5214071608278171e-29  6.9221479000294472e-55  8.2313309100128945e-18  3.2102593786556770e-54  6.5678596895751723e-40  7.1144320616614747e-31  -1.3517033155360096e-41  -4.9453182355943612e-74  -2.4167654345441035e-22  5.2601604713298044e-50  1.8788089712033005e-35  6.1954399333682074e-21  -5.0656063873492990e-48  -1.7849727562625058e-42  -7.5843831935925576e-22  -6.7965528523685708e-58  -1.3502653831756407e-67  -4.8136001473644066e-56  4.9983803797949766e-59  -9.0003078183697451e-27  1.1538261161630602e-15  1.1445989734969168e-36  5.3684904500928905e-16  7.8143918703440683e-49  8.6586715608477456e-38  -7.7682808637286831e-27  6.6409899773879174e-44  1.2705329473642960e-44  7.3737949655262433e-31  1.4470163101751870e-53  -5.6933672370096648e-20  5.2029296126244698e-37  7.6578948144424700e-13  1.2904404675050565e-42  -2.2127875488657952e-18  -4.7538349648773202e-22  7.0823626401650633e-26  -4.8901371552854169e-31  -1.1768298383136800e-29  -1.5907273417947606e-46  -6.7882358902398795e-48  -1.7159026173312521e-44  -2.4392843732269831e-10  -1.0586938605161405e-57  -8.6473177682220915e-66  6.9409353703386779e-69  2.9622715582456558e-53  -3.8113784125691685e-27  1.3915877051297554e-65  -1.4413179851434067e-18  2.1637318762100905e-24  6.4705397981059530e-28  3.3491156423574524e-49  -2.1673861245626324e-34  2.1142459435217559e-33  6.3197013930006370e-59  3.7244391183613596e-39  -6.0659852879386619e-61  1.2391068741010035e-61  -2.5950999707136332e-50  -2.9625285103202500e-61  -2.0439131007961205e-43  1.8367948073294077e-66  7.6671800100192006e-47  2.5228807842462589e-42  -8.1301427997440592e-35  -1.0608511663720377e-09  -1.2652569168672429e-56  -7.4848098460696458e-55  3.0402166015114045e-57  -3.3422070512159956e-21  7.3034664705724050e-43  4.1769803423969952e-41  -4.0830966797848130e-45  7.4257170537267016e-69  -2.4716992805279300e-23  -1.5404213247866929e-52  -3.0020680963195071e-24  -7.5237458408459321e-22  -9.7322516130513222e-51  7.4696104647815951e-39  -3.4554059587933052e-47  -4.4803761745232299e-59  3.9419842850040818e-56  -1.6477325701652282e-25  -1.1016551363346877e-18  1.9208750018933409e-38  -1.7026901650011819e-56  6.0997630775659580e-52  -1.5350581958285080e-43  4.1575631703576809e-45  -8.5480949061254499e-46  -5.6089245858347483e-55  6.0913306548796570e-44  -7.6724500135407433e-62  1.8712064337161437e-50  1.8502147510984409e-27  -1.6261451361013608e-59  -3.5273311106883348e-53  1.0124356878812545e-49  8.1684323109089999e-49  -3.7426248676746810e-68  -8.3612916681704717e-67  -7.6024513013205699e-66  -5.0768291801231970e-53  1.4125266400489973e-53  2.1340635743480949e-49  -5.5278922843569254e-23  1.0202850418454325e-23  6.3351739743809893e-41  -4.9415194986569084e-61  5.3238321267958477e-66  1.9747201039696626e-47  1.1937795442299983e-71  5.2383655751625293e-70  -8.2781076211583111e-34  4.8806525921763219e-37  -3.9595619437943327e-51  5.6262140763254711e-49  -7.7276458931821388e-42  -8.4484087340940511e-22  3.3173734785300261e-56  -1.4785326850463452e-54  2.8990610206005964e-49  -7.3604714618950901e-08  -5.8303788388649238e-08  -6.0479247094031967e-10  6.8912917245829640e-46  -2.0180183334560015e-51  -8.1286686208426023e-51  -1.5988371158205840e-16  2.0852132577276526e-58  -3.8398564225869633e-52  1.5742846618400270e-34  -4.0168603328179390e-41  -5.5505025567639726e-54  2.9673156709339861e-75  -8.3773347505937595e-45  -3.5236951689939783e-64  -1.5433975388227966e-69  7.0324347228827696e-15  9.3016089757604743e-33  1.8616322903087642e-43  -7.0150717434517264e-57  -1.0278972696913422e-59  2.0154877614515459e-41  4.9647973691794846e-55  -1.2117050275812365e-13  5.7111578464707234e-40  5.2022763192402228e-73  -1.3440415399672307e-37  5.2942132263610774e-20  -1.1065834077149571e-31  1.7335328487260511e-51  -1.3378888866810914e-28  3.6779365394853711e-34  -2.5851141161793372e-26  2.5068508523682161e-59  -1.0432776865556862e-47  6.0839016585208934e-08  -1.0302098126871436e-28  -7.8077596064485787e-16  -1.7060200601954738e-14  -2.0959431592806715e-16  6.1488391060004649e-12  4.3082873161813024e-12  5.1207511209022380e-61  6.4863115152249691e-63  -1.1046466196543497e-39  8.4219042454521758e-36  -1.5133793110627312e-36  -1.8974791582025492e-31  6.9874905618987505e-05  3.0585754754006106e-54  -5.7237827240014892e-58  -3.1064351716622002e-22  -1.5045762931353725e-63  1.0869867615558188e-52  1.2230394238435528e-66  -4.2893496457714425e-50  -7.6606601438076473e-67  -1.7334539161073366e-27  -9.9461951954875691e-60  1.0349729613334295e-36  3.6557657414641395e-58  -1.7272721492640545e-57  2.8744351904764986e-05  7.9147072445033329e-02  -4.8841343450682753e-63  1.7924829909384062e-26  3.4519850294925017e-72  -1.3959605983713101e-03  1.4466563477739306e-46  -2.7576243137297532e-54  2.8630513039534157e-19  4.2138697715016852e-20  -5.9441513465767034e-43  -1.5692041466861596e-56  -6.7729341174302431e-39  4.2894363643312301e-25  -2.5190349197747323e-70  1.4705321414146847e-07  -7.9628144242132137e-47  -6.0275521058594163e-46  -6.9923507602498874e-23  7.4206830871261060e-56  -3.1289093298844977e-11  3.3021036423415327e-38  2.8785205386717524e-51  2.7064163966809505e-48  -2.1085914206780747e-44  -5.9423335525226588e-63  -1.1518115320187455e-37  -1.5036420919899400e-47  -2.3211818648208541e-32  -1.9824438257540715e-47  2.6316728638445408e-54  -1.8383273236836747e-59  5.2484991045771457e-62  -3.4317500978731869e-48  2.5907516764767080e-26  -1.3305538794435041e-61  2.4180874032258948e-63  -5.8639631584912911e-24  -3.6730358462065390e-74  6.2281016316691010e-59  -1.3120342262736436e-72  -1.5904208772302634e-53  -2.0018752793207857e-56  -4.6029678454076002e-62  2.7587448487825213e-36  4.6181417320876751e-58  -5.1659424264582132e-67  -1.6046532429831740e-36  1.0025917448494079e-33  6.0691144417797070e-62  -3.9332639260879009e-64  1.9028336286843241e-65  2.8436228259801333e-20  -1.5627669188804096e-22  2.6847179538972790e-27  1.4880710336097269e-61  -5.0707119331939019e-14  7.7623666204991793e-19  1.7366819661428147e-40  -1.1940466862489322e-41  -1.2954675502935887e-56  -2.0812596643445792e-07  -3.5720485377388806e-50  -6.3418619610469123e-54  -1.0640366360203020e-12  -1.5765929506416596e-30  2.3730693753588129e-04  -1.4319126678449062e-06  1.2536412765390309e-68  2.0338198197157936e-75  1.6567132052058251e-80  4.4858112043768645e-77  7.7764784529111469e-33  9.0995467674420545e-64  -8.2334174291374274e-10  -5.8918386824627625e-69  -1.3988831988287563e-72  1.0177744034140348e-55  1.3475487920705529e-45  -7.1864267281684706e-56  1.2710790881051075e-40  1.2433652000782440e-56  8.3832107485145901e-36  -5.3210085711068892e-60  -1.0477716812936113e-15  1.5783169383772999e-14  -5.8327631207845480e-14  2.1054253109516773e-63  4.8248174151612877e-10  -5.5350913921015791e-23  -2.8343413544359908e-11  5.4789266094810537e-47  6.3848734121769212e-30  4.9612832078965395e-27  -9.2441382317197539e-50  1.7284734698387025e-32  2.5683034206724342e-34  1.3746157247244416e-36  -2.9383499680545973e-28  9.6563913563180433e-13  9.8196363068920423e-10  -9.6010797376830460e-57  -6.9728315090479394e-52  2.5594897323335165e-47  -5.4743860145715747e-55  -1.0093395663550065e-17  6.3994016345795262e-63  -3.4908858520447817e-34  -4.9710375030034961e-50  -2.1195112517306720e-31  -2.1563882871900923e-19  3.5944894809240150e-42  3.7064113618317208e-46  3.6204994013255294e-34  1.4645702728282384e-25  -1.1061474397702274e-27  1.9209545439721368e-43  -1.0561313174512367e-58  7.5665731727162551e-19  -1.3845325830803009e-53  1.3193313170951923e-53  9.7499832080988542e-34  -1.4924927445128969e-43  3.7924524596070841e-21  1.4476867598111306e-47  -1.8978449303136530e-16  4.9033469073742525e-61  2.7605032878062049e-38  -2.9723312054923954e-39  -4.5753287632132918e-58  1.0176779642893893e-51  -1.0617596883026358e-51  -1.6861998979462175e-54  -1.6465473537319028e-54  -3.8252284085252338e-50  -3.1134945692490188e-30  -1.0186061405663212e-51  4.8840549675536038e-40  9.5731153917999506e-32  -5.5983017656486524e-43  -3.0398886177178022e-44  -1.4972641122088979e-60  -8.0729580390315417e-39  -1.2909658558711202e-43  -3.3455339596743403e-44  -7.2336829394410880e-48  -2.8958267866735638e-49  -4.0485366223122900e-36  -8.3552646967737811e-37  -4.7617430431129769e-40  1.7788911684696618e-31  -7.2775562309463920e-49  7.9797536667138072e-56  -7.2776919829224314e-58  1.7140937734378190e-51  3.1539485066204964e-49  -6.4668525540006982e-53  -3.9878914870868662e-61  -4.3667804786982916e-45  -1.1004713318732316e-34  -1.6444203413397073e-60  4.5359092988707057e-60  2.3180812050113659e-57  -5.0076531196534903e-41  -3.8283632228038062e-34  1.2866550617084893e-24  -2.4906815191671527e-44  -9.8976198586494601e-44  4.9062714197193343e-23  5.3576844230100340e-30  5.3216403356341616e-65  7.8329591845252753e-17  7.1446178162311334e-43  3.7246208512646476e-67  -1.0215342876792137e-63  1.4552695532990763e-70  -8.8586436243751609e-51  -3.2549888675846464e-56  3.3529796749193118e-32  -1.9737892216913839e-45  -1.1762293011190722e-39  2.4961758107574595e-29  -1.5011063179372851e-54  1.1298270330700619e-57  -2.1249037835216119e-42  -4.1815692315304176e-51  -2.7705559259521458e-28  2.3517053871056022e-40  1.1874147919228388e-31  2.3515624635872238e-2