<?xml version="1.0"?>
<VTKFile type="UnstructuredGrid"  version="0.1"  >
<UnstructuredGrid>
<Piece  NumberOfPoints="6486" NumberOfCells="12696">
<Points>
<DataArray  type="Float64"  NumberOfComponents="3"  format="ascii">0 2.5 0  0 0 0  2.5 0 0  2.5 2.5 0  1.25 0 0  2.5 1.25 0  1.25 2.5 0  0 1.25 0  1.25 1.25 0  0 0.625 0  0.625 0 0  0.625 2.5 0  0 1.875 0  2.5 0.625 0  1.875 0 0  2.5 1.875 0  1.875 2.5 0  1.770833333333333 0.7291666666666666 0  0.7291666666666666 1.770833333333333 0  0.9375 0.625 0  1.875 1.5625 0  0.642361111111111 1.163194444444444 0  1.341594827586207 1.883979885057471 0  0.46875 0.46875 0  2.03125 2.03125 0  0.3626104797979798 1.513178661616162 0  1.381740196078431 0.4564950980392157 0  0.9375 2.172619047619047 0  2.172619047619047 0.9375 0  2.096354166666667 0.4036458333333332 0  0.4036458333333333 2.096354166666667 0  1.684027777777778 1.163194444444444 0  0.3418803418803419 0.8693910256410255 0  1.642742622813391 2.162164207604464 0  1.275619849389031 0.8465650753054845 0  0.9136284722222221 1.434461805555556 0  1.732437511238546 0.3406962303960658 0  0.9714402568595876 1.029779313093998 0  1.52281746031746 1.485615079365079 0  2.1875 1.71875 0  1.06819722569879 0.2997236128493951 0  2.136114211309524 1.303478422619048 0  0.3125 0 0  0 0.3125 0  2.5 2.1875 0  2.1875 2.5 0  0.3200021620376328 1.192323085056694 0  0.6738456129277992 0.8304377375553881 0  1.757891808928991 1.861952730357003 0  1.5625 0 0  0.9375 0 0  0.3125 2.5 0  2.1875 0 0  2.5 0.9375 0  0 0.9375 0  0 1.5625 0  0.9375 2.5 0  2.5 0.3125 0  0 2.1875 0  1.5625 2.5 0  2.5 1.5625 0  0.7448220909826522 0.3003573636608841 0  1.027298850574712 1.871151477832512 0  1.331260495098891 2.197262878816185 0  1.207917681892289 1.582765010956622 0  0.4339993447432606 1.801186844743261 0  0.6337298768939392 1.443093039772727 0  2.049851190476191 0.6826636904761904 0  0.6584821428571428 2.219122023809524 0  1.89575676467455 0.9798457973793544 0  1.437570562095628 1.059380588255917 0  1.502090052505845 0.6987070896496241 0  0.2040860661083546 1.705323965099331 0  0.2083333333333333 0.46875 0  0.5070952039991439 0.2211150679997147 0  0.6916302856529919 0.5813591430410241 0  2.265625 1.953125 0  2.2265625 2.2265625 0  1.886424081252096 2.243391360417365 0  1.40625 0.202164758520858 0  0.2269345238095238 0.2269345238095238 0  1.152730869673694 0.5225850378741401 0  1.885631899587912 1.312095130148776 0  1.614808884009367 0.9049784971014416 0  1.890095442220658 0.5126535558463003 0  2.323168682795699 0.46875 0  2.268811725689575 0.2304742875213018 0  0.6002389442105756 1.967426444210576 0  0.1768313172043011 2.03125 0  0.2311882743104251 2.269525712478698 0  2.03125 0.176831317204301 0  2.280262553344767 0.6954945504579233 0  1.979219539285994 1.809922269642997 0  2.336309523809524 1.09375 0  1.09375 2.336309523809524 0  0.9314042474388009 1.662973812215543 0  0.1634067999087722 1.40625 0  2.337090640094896 1.40625 0  1.141616997467638 2.069311773587991 0  0.46875 2.338939559681489 0  1.542440307908715 1.734944797244472 0  1.556713687786879 1.956977865354753 0  0.8264238995344066 1.975424467820646 0  1.466326331454725 1.275271369760862 0  1.655675324257095 0.5444159974393489 0  0.3385416666666666 0.6479255698005697 0  0 0.78125 0  0.5236073939200119 0.984090461540625 0  2.091665741047893 1.519793517904215 0  1.71875 2.5 0  0.5356538886262603 1.623137930505009 0  0 1.09375 0  0.1932884281517095 1.015625 0  0.8569313582417669 1.2198915584249 0  0.8876981284879677 0.8329884081524883 0  1.115618488474214 0.7219586973356271 0  1.186950366204949 1.043465130075318 0  2.057459118787237 1.110823087309335 0  1.830651283878689 2.049810069572418 0  1.689107969301489 1.367247437031697 0  0.4921048768039656 1.298643370653124 0  0.8213975694444444 2.336309523809524 0  2.03125 2.5 0  1.049729400480002 1.283723261332814 0  1.308101375801673 0.6489479469700392 0  2.5 2.34375 0  0.4968777175037714 0.7562964879736076 0  1.40625 2.5 0  1.501347663534097 2.307027627307738 0  1.602813712048603 0.1926218191360736 0  0.8393082906308107 0.463778306132633 0  1.682663349152719 1.598471865581041 0  0.7774174680851571 1.560004941327907 0  1.554204170364662 0.3898593897892066 0  1.842184459051087 0.186443880058197 0  1.358107417651776 1.696381759610015 0  1.18859291992392 1.77598670078022 0  0.1875331222687418 0.7609599743339348 0  1.339536743965101 1.422080365801479 0  0.7788179348750389 0.9955343414928611 0  0.9062978492805438 0.1919636509126373 0  1.256007360640958 0.3160320559396114 0  1.09375 0 0  1.174986727221844 0.1594990293443933 0  2.34375 1.796875 0  2.318026474511116 1.589177949022232 0  2.34375 2.5 0  1.672742954892153 2.332882724550692 0  0.2683637361947215 1.874801596909639 0  2.174770749820102 0.5581009131310781 0  1.443279522965991 0.8870068372898454 0  0.3385416666666667 0.3571428571428572 0  0.78125 0 0  2.060421048269335 2.314363248763811 0  1.088078737088509 0.8967352118723447 0  1.087825368444708 1.454931510884769 0  2.018308232129541 0.8548495425854904 0  1.943987311736842 0.3246298523011434 0  1.71875 0 0  1.85337849796276 1.144833312386208 0  2.3486328125 2.1044921875 0  1.407588788651747 2.042968789119587 0  2.336309523809524 0.865366648092144 0  2.34375 0 0  2.5 0.15625 0  0.15625 2.5 0  0 2.34375 0  0.1638044648294291 1.242263417405867 0  0.356216654757926 1.032569427322806 0  0.3188217956111817 1.355736727000647 0  0.5924956460852111 0.36112522004736 0  0.6594216488965849 0.1603472116132387 0  1.841804599497131 1.72214349266521 0  0.15625 0 0  0 0.15625 0  2.115898634821499 1.894570904464496 0  0.7821877980253907 0.7129993435924866 0  1.003820447087786 0.4516053462784233 0  0.477562948779147 1.138333049293613 0  0.719493678605015 1.305655360135975 0  0.9772457618587566 2.020350128938537 0  0.8764738248887107 1.826219722709673 0  1.254787875123819 2.339010653832026 0  2.343597354852534 1.249982759769001 0  0.78125 2.5 0  0.46875 2.5 0  2.5 1.40625 0  1.09375 2.5 0  2.5 0.78125 0  2.5 1.09375 0  2.03125 0 0  2.5 0.46875 0  1.40625 0 0  0.46875 0 0  0 0.46875 0  0 1.40625 0  0 1.71875 0  0 2.03125 0  2.5 1.71875 0  2.5 2.03125 0  2.005424054645407 1.653223486966518 0  0.1538730573856537 1.559850281736677 0  2.33984375 2.33984375 0  1.166539506212474 1.922878979538754 0  0.3914885633949916 1.65887232812171 0  0.5795503163042564 1.766243562569382 0  0.399533125920212 1.946786875081388 0  0.7866324979014098 2.127719094551316 0  0.3654683023546834 0.1495701132219454 0  0.1527388747131078 0.6116379440619215 0  2.013737577140188 1.391056634712135 0  1.17635437372994 2.213329084238133 0  1.737118141866284 1.010577140843115 0  2.200707118087222 1.164723314085963 0  1.697018908736685 1.993548551451517 0  0.5387621649009668 0.6070503962352419 0  2.032805785855952 0.5330427622570983 0  1.082699501358059 1.667818725183932 0  1.503819781540653 0.5468420196858188 0  2.015409142866072 2.175941657590429 0  1.752057611265444 0.869642097111018 0  0.612251684107783 2.356045720700959 0  1.902817102342857 0.6607642211999982 0  2.159616561739693 0.7867739969338844 0  0.5120038350106624 2.197302352398502 0  1.888200216011548 1.919501662489862 0  1.495909909726654 2.16028358757309 0  0.489139876703609 1.443203008943564 0  0.8819175670410521 0.3301172743913011 0  1.882591144370812 0.8155965192707721 0  1.133979796994841 1.172526771862882 0  2.206217447916667 2.084147135416667 0  2.20361328125 2.36279296875 0  1.395746985657004 1.556054166359645 0  1.704383111516207 1.734750450338683 0  0.9575737847222222 2.36274223823052 0  1.035150984253136 0.1302833343179028 0  1.383966125325753 0.7651479963479179 0  1.64003252158672 0.6824316405528895 0  2.22550785055421 1.487078576356817 0  1.760964431499756 1.48495222505201 0  1.276460980673788 2.004207003584658 0  0.1341477688427096 1.828777507920502 0  1.542261434180652 1.155296658359034 0  1.334627911613854 0.9696897472490321 0  1.30794231473696 1.119420615785191 0  0.7028260459857245 0.4438906910721139 0  1.625757433094055 1.84268057552138 0  0.9818707849053143 1.165603626132254 0  2.0086489901463 1.243134585689553 0  1.934584460420609 2.374094051915812 0  1.798434376789567 2.38671361912528 0  1.206314791201715 1.382064292497919 0  0.6333752893366955 0.7023738550008095 0  0.7796219811205605 1.42573253164258 0  1.564399711917382 1.026040828857629 0  0.3385416666666666 0.4889012896825397 0  0.1041666666666667 0.390625 0  0.989112246382566 1.543537365516289 0  2.025724425454636 0.9846960595520872 0  0.6602885475034063 2.086117390485779 0  1.607130551925032 1.267198646640915 0  0.1317864544877056 0.8896173683400176 0  1.755387840017567 2.230364320056445 0  1.301540702984401 0.1216289692748247 0  1.433170657577442 0.3331052752740999 0  1.500459610550388 0.113513924782439 0  0.6494291520606965 1.029586599619295 0  1.010146149868299 0.794897284196169 0  0.3700844198238017 2.235390157870766 0  0.3360891767780704 2.36656279435396 0  1.876856241037701 1.437150669863757 0  1.778674102957329 1.245979347269706 0  0.5472829890977179 0.1005517127039925 0  0.4669074189005698 0.3416784232954367 0  1.472765289289269 1.850899166481903 0  1.555853593327178 1.608452097912802 0  0.6708955559113426 1.646561631116984 0  0.8164699620322933 0.5924479455478063 0  0.3167738989468366 1.758696809749795 0  0.2788007305565096 1.605499483471246 0  0.7821720982350511 0.181524936294752 0  1.376812251214195 2.313340247908297 0  1.785652202614777 0.5962261755537186 0  1.761467296310972 0.4679567244718574 0  2.2265625 1.8359375 0  2.3828125 1.9140625 0  0.5279531607054191 2.071552361614785 0  2.397573269551114 0.234375 0  2.383578172599618 0.3589298466020009 0  0.1024267304488855 2.265625 0  0.1164218274003825 2.141070153397999 0  0.2696857594953064 2.135405441512016 0  2.164961300137334 0.1375322943529536 0  2.137757548369486 0.2724194778647587 0  2.238873711826398 0.3626419179496562 0  0.1001414910226386 0.234375 0  0.2176339285714286 0.3478422619047619 0  0.2503620791333544 0.1061694061057066 0  2.336445461915368 0.1250451055247424 0  0.2154004640409726 2.3918124
[...]
<PointData  Scalars="f_49-1"> 
<DataArray  type="Float64"  Name="f_49-1"  format="ascii">8.3303425633435627e-05  1.9542686940098846e-05  8.8321115976633072e-07  9.1467443649784501e-04  9.7427033050947545e-06  1.1945614206687209e-06  8.6320814910445507e-05  9.4681554583778867e-05  1.1712463085439525e-03  9.9593004812133256e-05  1.4920869055187766e-05  8.4767457622710041e-05  8.9600419206542644e-05  7.9992577896884960e-07  4.3676855932687842e-06  2.0914225267340588e-05  4.7261726482194724e-04  6.0539165689376991e-06  9.1124065659782492e-05  3.0523574779951938e-05  1.8514626672259778e-04  4.0283133104415024e-04  6.2505149921812751e-04  7.6374801854726005e-04  1.0482381916250374e-03  9.2765789738759519e-05  9.1321663144229032e-06  8.8215327017898636e-05  2.9371595984673303e-06  2.9126724239348123e-06  8.8356787602087897e-05  1.7989248949369711e-05  1.7197913462534031e-04  6.8725729064796634e-04  1.8873001869914238e-05  5.8935541454378782e-04  5.6720430562661661e-06  1.4761263801024119e-03  9.7798608762355178e-04  5.8055329609694233e-05  1.1494928213248939e-05  3.8902787790303442e-06  1.6990961513722735e-05  -1.4529462510578709e-05  2.8562442311563351e-04  1.1814803514330601e-03  9.5097011709852192e-05  2.3099505399365875e-03  1.3196741601135288e-03  6.8157661158643277e-06  1.2308123022886477e-05  8.3298220781377570e-05  2.0280471706464154e-06  8.7717817317163054e-07  9.6831989987538177e-05  9.2225000739118529e-05  8.5408788043778283e-05  7.6083436703607135e-07  8.7605653160199306e-05  1.1662864359201697e-04  1.6589877148255283e-06  1.3974076353504101e-05  1.1082126461567860e-04  1.2220837413652304e-04  1.2757239578097578e-03  9.0614732776782717e-05  1.0056862909566561e-04  3.4714986707221174e-06  8.7680194759875288e-05  5.1730575478723812e-06  4.9570813716876549e-05  8.2169423740698758e-06  9.1204757211286026e-05  3.5338573565860346e-03  1.5620586700514614e-05  2.6804784923071097e-04  2.1766030585063201e-04  1.0036379440068739e-03  1.1514633546358618e-03  8.4858321469180241e-06  -1.6415730243451504e-05  1.0973311605302071e-05  1.4128981019558180e-05  7.6925598101603047e-06  4.5631269327468995e-06  1.4971308400525064e-06  1.7633983862511313e-06  8.9423054118440931e-05  8.8589060844582385e-05  8.7034882935879554e-05  3.3286505482425159e-06  1.8593329062970458e-06  5.3600965991137234e-04  1.8861405161583014e-06  8.7385078978239900e-05  1.5614261749970378e-04  9.3578800082754529e-05  2.2962007426693382e-06  9.8806330826403871e-05  8.6643764996349352e-05  1.5010500443214511e-03  1.1104212209834495e-03  8.9522503533471322e-05  3.4775244599289637e-04  6.9046246626594361e-06  1.9443571704012030e-03  9.8225681238197691e-05  5.5299201921901319e-04  1.7089726550090028e-05  2.3240751455677521e-04  9.1906409934580866e-05  9.5718269992907501e-05  9.6326625467025543e-05  1.3774216240217689e-03  6.9090535346760687e-04  1.9058591644490547e-05  4.6118169424324488e-04  3.9269346751000017e-06  1.3977854047406402e-03  1.3536721947375458e-04  9.6861798621161111e-05  8.7032880047369752e-05  9.0531769636492774e-04  1.7826282677183671e-03  9.7440315635971223e-06  6.1014271666544253e-04  2.3884296778093222e-03  8.9787257295950699e-05  1.6417402777904239e-04  6.6467519883681073e-06  1.3320324309320799e-05  7.8968170829599507e-04  1.1053501566199209e-04  7.5377923451947038e-06  4.5859040822519675e-06  1.3639041429636158e-03  4.4323567422517243e-04  1.0449745284761001e-04  1.4178830525376869e-03  2.1092925416141602e-03  1.2667910923881467e-05  1.0040180427249046e-05  1.1076866402001662e-05  1.0713528299260425e-05  3.3159635556928021e-05  6.0062509937985462e-06  1.1767252544401155e-03  3.8358067157164699e-04  8.9909692211497468e-05  2.3732822350154230e-06  1.0831982607251806e-05  7.8577357732887343e-04  1.3499471484844831e-05  1.2850611258438042e-03  2.2438889912532067e-04  1.3396068993221887e-03  4.1092122131428383e-06  3.9641590673541393e-06  5.6330986310701387e-06  6.4002522505879516e-06  3.8403664241280327e-04  3.8127523800910281e-04  1.6104084624640691e-06  1.4468432800890621e-06  8.4388167940681596e-07  8.3213365557291459e-05  8.5633128251765448e-05  9.4669009112379712e-05  1.0243107587168209e-04  9.3903866563311666e-05  1.5222718324597784e-05  1.4598459594845600e-05  6.7701873239077275e-04  1.8372943631351002e-05  1.7703640865245555e-05  4.0078404542541062e-04  4.9818295865161611e-04  1.2025669671945399e-05  1.2277764146577364e-04  2.9276655389393936e-04  9.0271298937065494e-05  9.3443805480250539e-05  8.9832149389753568e-05  2.0583782238736416e-06  8.5153553973448212e-05  8.3891982122044390e-05  1.3031411541315752e-06  8.5733117524789705e-05  8.8645293544594109e-07  1.0341630284821395e-06  3.3134465633345589e-06  7.7904864793809645e-07  7.8913089522752277e-06  1.6005369813477445e-05  1.0012100244715832e-04  9.3583496121160811e-05  9.1038676828472681e-05  8.8661675333884609e-05  4.4595727520477310e-06  9.0223598930708963e-05  1.2969960022055684e-04  9.2319456766792258e-05  9.8098520907362904e-04  1.7045202488865819e-04  9.1804227590825489e-05  9.0844030469037761e-05  8.9433612571853251e-05  8.8392116620082288e-05  1.6653549311026568e-05  1.2252259040876991e-04  1.1217955412752347e-05  9.1118934967660819e-05  6.7903897765630554e-06  2.8895901124721840e-06  1.3741579156828089e-03  1.7876445578344682e-03  3.5194309273523739e-06  4.2697110622686455e-04  8.1225555671922937e-06  1.3150851764993784e-03  6.3134114065629826e-06  8.6649024445851081e-05  4.7298059119008432e-06  2.7763347783434559e-06  8.7744387556716407e-05  1.1410567430099078e-03  3.3568020706546751e-04  9.3354557220206623e-05  1.2874639289014301e-05  5.0291819339811797e-06  1.3664893937987449e-03  7.0161563186979981e-04  1.2445643994197682e-03  1.5522308930603454e-03  1.1903523687370591e-03  8.6919852014464893e-05  1.1727388387338901e-05  9.4258280047066135e-06  7.0604295449022347e-06  5.5765454050844976e-06  2.3649717537938469e-04  2.0499652173568868e-04  9.0300347264026494e-05  5.4878701044864004e-05  4.0486755080513264e-05  3.3404806026641944e-04  2.2630698246334130e-05  1.4755524985466048e-03  1.8957743947350197e-03  5.3926514665444473e-06  9.4351222485290136e-04  5.2354339817876710e-04  1.6904996988986556e-03  1.8398346284528870e-03  1.9984960908138899e-04  1.2492562015914396e-05  3.3711286919601404e-03  1.9706090177220859e-03  4.7523415678592311e-04  4.0038273285760456e-06  8.8541145066650388e-05  1.0796430514125688e-04  9.7290987170645479e-05  8.0173788520054010e-04  9.3420144078870891e-06  8.5622612766693812e-06  7.4323403427957586e-06  1.1807525944653172e-03  1.5187472729752364e-04  8.7399719471738474e-05  8.6145920386709564e-05  5.0292587548743313e-05  1.8724235243869166e-05  1.5357983168727609e-05  3.6126352821767983e-05  1.2271130851938177e-03  1.2613315667113125e-03  9.2133511420456216e-05  6.4927128433235479e-05  9.0876322418944897e-05  9.2122265680691772e-05  1.3695360725275464e-05  1.0601237462511655e-04  5.8086470476449951e-06  5.6592455623248488e-06  1.2160088670567831e-04  6.7682276569311446e-05  8.8618466921442290e-05  1.0371779591811028e-06  1.2388977687040555e-06  8.6958126423855600e-05  8.8009682457739277e-05  8.7999195341794669e-05  2.4038113476039446e-06  2.6412956343175663e-06  2.1006380224753751e-06  -2.5427405000450376e-04  3.8717893212521040e-03  1.7473622485444481e-05  1.3150850828128260e-06  8.5522663670404032e-05  8.8244498738500427e-05  1.8485879538022312e-05  5.7593400128629376e-06  1.2191966445608375e-05  1.0766628142731588e-05  9.8739425100955181e-06  8.9078580742525524e-05  4.9084634081203319e-04  1.3529863065878936e-03  8.9230969276946057e-05  3.9702892774739148e-06  1.3362198363087151e-06  1.3012733413488682e-06  6.0634085881892605e-04  1.9030471738981850e-04  8.9959118733175714e-05  8.9918260110351256e-05  7.9881563612048003e-06  1.7213148984870447e-05  4.3484054562154521e-04  4.8426430713335329e-06  9.2937788633702938e-04  9.7153883235936452e-05  1.2947544417493074e-04  2.6043438086809267e-06  1.3062481060300391e-05  2.7097831164811084e-06  1.1296114480841159e-04  9.5370670139016209e-05  1.4624379522416475e-06  9.7616867264277126e-05  1.4965924227826425e-04  1.6157061975007143e-04  8.3029105712830917e-04  3.8277750867032631e-06  8.6921203776860203e-05  9.3163488469195067e-05  9.4163281798695665e-05  1.8820252598212935e-06  2.7927993922020856e-06  2.0213774390678181e-03  6.3001922653184391e-06  6.9907140528473408e-06  1.3660869990051636e-03  5.0177938854984173e-06  4.3294453879029159e-06  9.1712626203516948e-04  2.0657866634686531e-04  8.6331528155151189e-05  1.2908728724083437e-03  3.1186542124298801e-04  2.9363991959468596e-03  1.8961781744665086e-03  6.6697402333538239e-06  9.1642909191223855e-05  9.5174342866284945e-05  1.6287574531766219e-06  1.4574640864946878e-06  8.9666779592299019e-05  8.4998528588947679e-05  9.4427698202062397e-04  6.2286328914905328e-05  6.0480725629308561e-06  9.0015272527238696e-06  1.1938801324067531e-03  7.5848561518963632e-06  1.2093390191860894e-03  8.8882849677026526e-05  9.1250756321014357e-05  9.6622292889412902e-04  9.3048188384497245e-05  9.5367544874034855e-06  1.1071056178274929e-03  1.5446394575239486e-03  1.3431016738913763e-03  1.1646679559278068e-04  1.0867296661029780e-04  1.8181590602861929e-03  2.0268591745197949e-04  1.3678690647673244e-03  7.1352383708236185e-04  4.3217238447973868e-06  5.8253634168343690e-04  2.1803050560532944e-04  8.5022193463005517e-04  1.0234028729767582e-04  8.9189212755278458e-05  2.1332816159417908e-06  2.1662403089302718e-04  9.9871947207009852e-06  1.4786811378383625e-05  8.7749069615328845e-05  9.7987141232695619e-05  1.6146024676327948e-03  5.3506506978437006e-04  9.7553659007810253e-04  6.5358030132483179e-06  1.8717407075016162e-05  1.3102526593984597e-03  9.8488758270133162e-05  9.6480746249707304e-05  4.7515797433655009e-06  3.4622283692525759e-06  1.6286152380922763e-03  3.6714366402489303e-06  1.8193268811857955e-04  9.2878015151247323e-05  2.1386617510016875e-03  1.1220900382936052e-06  1.0741102611538105e-05  1.2322768346288803e-05  3.4710506696343721e-05  2.2687738273913748e-06  9.1386655297050681e-05  9.2431533524867321e-05  4.7331344660122990e-05  2.8374760975377967e-03  3.3315769417783614e-04  8.4092781793641401e-05  1.6270393670297994e-03  6.9367593296691210e-04  8.9595684033922838e-04  3.5869173223641301e-04  9.8828330192758453e-05  9.5489811796209404e-05  9.0283472819752077e-05  7.1771014504561298e-04  1.3900215889088715e-03  1.2583044856415073e-03  1.4109466386410772e-05  1.5584062658072677e-03  8.6339649978920568e-05  8.7234563894327634e-05  3.2628320071250120e-06  9.9301818010784672e-06  8.9214548914149611e-05  8.3919566649546991e-06  5.7779968180639643e-04  1.3917160667090556e-05  1.8355440229910299e-06  9.0938724640585712e-05  6.9552541078305276e-04  4.9896663550380960e-06  1.2053658978392581e-03  2.2784591815742800e-03  1.2676418975642615e-03  8.9134709892733248e-06  1.2265583266530011e-05  1.7104946144538935e-06  7.5103905109034702e-04  9.5773271069674959e-05  1.6498672658503923e-04  1.7840620744763664e-04  2.2806595047532529e-06  8.5419090527491038e-05  3.6956670846797597e-05  1.6007454451439094e-03  1.7005930281361120e-03  9.7939534460431992e-05  1.3897570653703315e-03  7.5601119604171578e-06  9.4464808763255323e-05  2.6104105855360852e-06  3.0491207888921245e-06  9.3789623991013285e-05  8.7497805807629979e-05  2.3561297849388502e-04  7.4985679060146426e-06  3.2202382468355284e-04  3.8595133435164426e-06  1.3471798293393192e-05  1.6237759850828878e-05  1.0750062733561961e-05  9.3617197098669263e-06  9.2742605888028839e-06  7.9598385196933536e-04  4.0130312133233702e-04  1.4565729181313367e-03  1.5976369766875347e-05  8.3686173920888282e-05  1.2376983374016274e-03  1.2500122078771894e-03  8.7176872161957692e-05  1.5368871412442908e-04  1.5025782422294583e-04  3.6666714531006314e-05  1.1337460978763787e-05  6.0193051192267339e-04  8.8181178470145294e-05  1.0046547394761238e-04  8.3257355831164117e-06  6.7246284604487533e-05  9.8963475112057126e-06  8.7667514664340110e-07  3.2320931800681770e-06  6.7422422177994049e-06  1.1890682482105779e-03  8.9623630580414645e-05  9.1203892803915691e-04  3.9000437003888750e-06  1.7453424273787429e-05  7.1870737219039489e-04  1.6334268126600285e-05  7.6581338006663278e-07  1.1341649661310699e-06  8.6597927440628145e-05  1.2314146454962816e-05  9.0244553982086467e-05  9.0526495129729758e-05  5.9257690055726428e-06  1.0872637543708537e-03  1.2015420701759021e-05  1.8126448993925244e-04  1.2540483216582399e-05  1.6877703470686580e-04  4.7861262600547139e-06  9.0383903439882656e-05  8.9196322845120122e-05  8.5587720604286371e-05  8.5833816495203469e-05  1.1147178483902012e-05  1.3310011872777632e-05  5.6937101851313704e-04  1.7994920191911108e-06  8.7878935287406918e-05  9.0302283340308956e-05  7.7485695465837955e-06  5.9395678619360011e-06  3.0322623760013756e-04  8.8649024033726382e-05  1.7926178678200132e-04  3.0015412264139084e-06  1.0078695281443206e-05  8.4406687929419426e-07  3.6198769942597706e-06  3.5214833247244759e-06  4.5542807545314946e-06  2.4653889907891334e-05  9.9454394051873529e-05  9.1207322684404922e-06  8.8403225080879906e-07  9.0657462890921661e-05  2.7409350677325197e-06  9.5757438385642103e-05  1.0002874255921884e-04  8.0395739991417835e-06  4.9683642857114186e-04  3.2485091356340928e-04  4.0006338724504943e-05  3.3905996164483690e-04  6.9290710909530569e-04  1.6088126517529433e-05  1.8508386884183374e-05  1.5525244864153168e-06  8.7670941011336282e-05  1.0378193317488125e-04  1.2626239799818795e-05  3.4466815829911889e-04  8.7411706523307883e-05  1.8210876875887721e-06  3.3552963427694899e-04  3.5274195749349859e-03  5.6407583827601060e-04  1.7950381141641279e-04  1.0446741806149875e-06  4.1690431314459311e-04  9.7397716525904815e-05  1.1412934063806344e-06  8.6416624831361978e-05  7.5692719559584556e-06  6.5024366929847041e-06  2.7140234978272542e-04  6.9179527871037426e-04  1.3738643024719431e-03  8.0059585492206129e-04  1.7127087613387593e-04  1.1139745037015304e-04  9.2584443394079245e-05  1.0227619412431800e-03  2.5805765155052839e-06  1.1962486579019873e-06  9.2285013421233175e-05  1.4487992955920534e-03  1.5125539082656485e-05  7.6443281952866822e-06  4.2887887473526929e-05  1.3685530857126705e-03  9.7121812306603242e-05  1.2812164364809912e-04  1.4162015461517091e-03  9.4370595466086019e-05  1.9400062924580368e-04  1.1441749359306226e-05  3.3198549499897446e-06  5.1591574748050601e-06  1.2700358395188893e-05  9.3887542138309835e-05  1.3672955120361755e-05  1.4922179879733489e-05  1.4320846726790575e-05  1.1294798492361667e-04  1.3384012824999042e-05  1.3864018827104159e-06  9.7247171893647741e-07  1.6572741931117328e-03  8.6923968632738918e-04  9.7885795850934839e-05  9.3326599373124924e-05  6.4955575967284842e-03  1.1044029944210882e-03  2.2505744077074370e-06  1.1902484103631336e-05  2.7115461095172412e-04  1.9431088181829490e-06  4.4408966909399689e-04  4.2350138512305867e-04  1.2923713418457044e-03  8.2020268970823117e-05  3.6718679374858680e-04  8.7637645395091423e-06  9.7323797005208321e-05  8.7975990139829173e-05  1.8797082028857766e-05  2.0691699519219509e-05  7.1885270385440149e-04  8.9307548133737114e-06  8.8359854952608792e-04  1.8828278279360154e-05  8.8006572929279970e-05  9.9056073432556512e-07  6.0803555967273084e-04  1.4864524018112159e-03  6.9535055837664124e-06  5.4108200680567959e-05  1.3518153891930239e-04  1.1529026269117650e-05  6.5681787509824406e-04  1.7016335992612264e-05  1.9107205696457565e-06  3.2868729590620554e-06  1.2029069955560639e-05  3.2947866878273944e-06  3.1670433303298841e-03  9.1397372715655491e-05  8.8223379116715166e-05  8.8941141848041980e-05  9.8560284361992386e-05  1.2713495702956737e-03  5.6359283033705426e-06  9.7163298618773732e-04  1.7634894311212772e-03  9.9349183031091659e-04  2.9793785238172554e-05  2.1143611317921441e-06  1.5884647601819143e-06  8.8049004772575628e-05  9.4705732211099338e-05  9.4601611837880420e-05  2.3146479432312309e-06  1.0259901828459543e-05  1.2303671390286070e-03  8.5248703418657829e-05  1.0732919668226010e-03  8.4812521385218339e-05  8.3383818520546492e-05  8.7207715604161303e-05  9.1630609573471820e-05  8.5070805895951288e-05  2.5772997061213191e-06  4.8438593249370342e-06  6.1769359556902567e-06  1.1006025104222115e-06  1.2646717943726781e-06  1.3883217586239997e-06  9.6222366489500085e-05  9.5166483997468165e-05  9.4147737993055221e-05  8.5945787913973897e-05  9.9013304041479434e-05  1.2877361808481044e-05  3.8489405155887550e-06  8.9167166684501361e-05  8.3065122883317825e-05  1.7776900719375059e-05  8.6614811607422173e-05  7.8147857357375475e-07  1.5551752462809435e-05  7.4668576121857920e-06  2.2024056585005207e-05  8.1088949801838924e-05  3.5405466772162416e-04  4.3835420644044261e-04  7.9236672222352032e-04  1.0602443740617964e-03  9.2777078958381889e-05  9.7151894358317445e-05  9.8777573739149173e-05  8.6603149820238654e-06  1.6067892380604176e-04  7.6678716734609167e-07  4.9458888649898222e-06  9.9462232734025591e-05  3.3246073075322266e-04  8.6108306911162442e-05  8.4176361547192726e-06  8.7646444811273163e-05  5.0358187487208180e-04  2.6891957314541864e-03  1.4531118792088268e-03  5.0175268832741475e-05  1.6134800794670451e-05  1.9818063428041024e-03  8.8882653163211079e-05  8.8895765883816730e-05  6.9251589537269178e-04  1.1497741768249483e-05  8.8896013088314230e-05  9.3127855985591576e-05  9.2304442116981970e-05  9.1910944006215719e-05  9.4099434249822551e-05  1.0028109459590209e-04  6.6563018164883699e-04  2.5083215837351838e-06  1.3487229499616405e-03  9.4763914483421687e-05  3.1577769947942495e-06  2.4297586518340080e-03  1.7365937060140602e-06  9.2648675511652648e-05  9.2982815782721999e-05  1.6877233424544638e-03  1.2522705092035720e-04  1.4082366299438545e-03  8.9621745728289248e-05  8.5787546728073882e-06  1.5976592248986743e-03  1.9079646762731536e-03  4.2427370727171310e-06  2.0070181561355687e-06  1.2464494577943360e-03  2.9634728903473121e-06  2.2985204903478494e-06  2.4520378170669464e-04  9.0321983269544441e-06  8.7697519387650697e-05  4.2882278921894662e-05  1.0782755320447394e-04  1.4017293893906371e-05  9.1569339590787758e-05  9.1139293430105188e-05  5.7945368830191856e-04  1.8150940314247694e-05  8.6508850346729374e-06  1.2083705314373830e-05  5.8355214416426579e-06  8.8187180386106146e-05  9.3586884806845503e-05  1.2927489922776649e-04  9.0821340533405392e-05  1.1156469482917552e-05  9.0055055575807632e-05  8.9718974771229050e-05  1.1524434598390352e-04  1.8244147528254743e-05  5.5623691798979570e-06  4.9118345755613481e-06  8.8500023135308796e-05  1.1914290496104881e-04  9.2245493715198995e-05  9.1977834410545003e-05  9.1221051848178663e-05  4.0587588135189033e-04  2.4350963284682157e-06  8.8366823983620824e-05  9.0355058450931512e-05  8.7686017691909095e-05  8.7809519134534689e-05  8.7334403409509208e-05  2.8347635447891872e-04  5.8322495664851271e-04  8.2023926687350506e-06  7.9612790522201864e-06  1.2533274511030425e-06  3.5401184503778648e-06  2.2779765922193953e-04  1.2471163480258965e-04  9.4902655226029406e-05  2.0234884061693582e-04  3.4898487323901512e-06  6.0663476642527816e-04  9.1203447951888762e-06  5.3238661917712660e-04  1.3248777221468947e-03  4.2977307227429027e-06  1.1839975971430783e-03  1.3314193978918977e-03  9.5931519322638346e-05  3.0228284192005037e-06  8.4907996040119705e-05  9.3251582230269997e-05  1.5548847017585791e-03  4.8007693228849100e-04  9.4454808671874731e-05  1.1996627974339561e-03  1.3974656174436896e-03  9.0368510821366542e-05  1.5547242566461629e-06  1.0559976972133378e-05  8.5389964905811431e-04  9.4361776355023874e-05  9.4100282610866441e-05  8.7212040764510383e-05  8.5924703476571428e-05  3.9983151841586640e-06  8.4964892800092084e-05  4.1313233887059675e-06  1.5374327870643992e-06  1.2806639674922582e-03  8.8231072715797633e-05  6.9400778926181338e-06  1.1228681839556465e-03  2.9398526487270759e-06  7.2773181753048863e-04  8.6930357078700399e-05  8.7461732063808778e-05  8.7962529173980523e-05  8.6813393343791739e-05  4.4380796042