<?xml version="1.0"?>
<VTKFile type="UnstructuredGrid"  version="0.1"  >
<UnstructuredGrid>
<Piece  NumberOfPoints="6486" NumberOfCells="12696">
<Points>
<DataArray  type="Float64"  NumberOfComponents="3"  format="ascii">0 2.5 0  0 0 0  2.5 0 0  2.5 2.5 0  1.25 0 0  2.5 1.25 0  1.25 2.5 0  0 1.25 0  1.25 1.25 0  0 0.625 0  0.625 0 0  0.625 2.5 0  0 1.875 0  2.5 0.625 0  1.875 0 0  2.5 1.875 0  1.875 2.5 0  1.770833333333333 0.7291666666666666 0  0.7291666666666666 1.770833333333333 0  0.9375 0.625 0  1.875 1.5625 0  0.642361111111111 1.163194444444444 0  1.341594827586207 1.883979885057471 0  0.46875 0.46875 0  2.03125 2.03125 0  0.3626104797979798 1.513178661616162 0  1.381740196078431 0.4564950980392157 0  0.9375 2.172619047619047 0  2.172619047619047 0.9375 0  2.096354166666667 0.4036458333333332 0  0.4036458333333333 2.096354166666667 0  1.684027777777778 1.163194444444444 0  0.3418803418803419 0.8693910256410255 0  1.642742622813391 2.162164207604464 0  1.275619849389031 0.8465650753054845 0  0.9136284722222221 1.434461805555556 0  1.732437511238546 0.3406962303960658 0  0.9714402568595876 1.029779313093998 0  1.52281746031746 1.485615079365079 0  2.1875 1.71875 0  1.06819722569879 0.2997236128493951 0  2.136114211309524 1.303478422619048 0  0.3125 0 0  0 0.3125 0  2.5 2.1875 0  2.1875 2.5 0  0.3200021620376328 1.192323085056694 0  0.6738456129277992 0.8304377375553881 0  1.757891808928991 1.861952730357003 0  1.5625 0 0  0.9375 0 0  0.3125 2.5 0  2.1875 0 0  2.5 0.9375 0  0 0.9375 0  0 1.5625 0  0.9375 2.5 0  2.5 0.3125 0  0 2.1875 0  1.5625 2.5 0  2.5 1.5625 0  0.7448220909826522 0.3003573636608841 0  1.027298850574712 1.871151477832512 0  1.331260495098891 2.197262878816185 0  1.207917681892289 1.582765010956622 0  0.4339993447432606 1.801186844743261 0  0.6337298768939392 1.443093039772727 0  2.049851190476191 0.6826636904761904 0  0.6584821428571428 2.219122023809524 0  1.89575676467455 0.9798457973793544 0  1.437570562095628 1.059380588255917 0  1.502090052505845 0.6987070896496241 0  0.2040860661083546 1.705323965099331 0  0.2083333333333333 0.46875 0  0.5070952039991439 0.2211150679997147 0  0.6916302856529919 0.5813591430410241 0  2.265625 1.953125 0  2.2265625 2.2265625 0  1.886424081252096 2.243391360417365 0  1.40625 0.202164758520858 0  0.2269345238095238 0.2269345238095238 0  1.152730869673694 0.5225850378741401 0  1.885631899587912 1.312095130148776 0  1.614808884009367 0.9049784971014416 0  1.890095442220658 0.5126535558463003 0  2.323168682795699 0.46875 0  2.268811725689575 0.2304742875213018 0  0.6002389442105756 1.967426444210576 0  0.1768313172043011 2.03125 0  0.2311882743104251 2.269525712478698 0  2.03125 0.176831317204301 0  2.280262553344767 0.6954945504579233 0  1.979219539285994 1.809922269642997 0  2.336309523809524 1.09375 0  1.09375 2.336309523809524 0  0.9314042474388009 1.662973812215543 0  0.1634067999087722 1.40625 0  2.337090640094896 1.40625 0  1.141616997467638 2.069311773587991 0  0.46875 2.338939559681489 0  1.542440307908715 1.734944797244472 0  1.556713687786879 1.956977865354753 0  0.8264238995344066 1.975424467820646 0  1.466326331454725 1.275271369760862 0  1.655675324257095 0.5444159974393489 0  0.3385416666666666 0.6479255698005697 0  0 0.78125 0  0.5236073939200119 0.984090461540625 0  2.091665741047893 1.519793517904215 0  1.71875 2.5 0  0.5356538886262603 1.623137930505009 0  0 1.09375 0  0.1932884281517095 1.015625 0  0.8569313582417669 1.2198915584249 0  0.8876981284879677 0.8329884081524883 0  1.115618488474214 0.7219586973356271 0  1.186950366204949 1.043465130075318 0  2.057459118787237 1.110823087309335 0  1.830651283878689 2.049810069572418 0  1.689107969301489 1.367247437031697 0  0.4921048768039656 1.298643370653124 0  0.8213975694444444 2.336309523809524 0  2.03125 2.5 0  1.049729400480002 1.283723261332814 0  1.308101375801673 0.6489479469700392 0  2.5 2.34375 0  0.4968777175037714 0.7562964879736076 0  1.40625 2.5 0  1.501347663534097 2.307027627307738 0  1.602813712048603 0.1926218191360736 0  0.8393082906308107 0.463778306132633 0  1.682663349152719 1.598471865581041 0  0.7774174680851571 1.560004941327907 0  1.554204170364662 0.3898593897892066 0  1.842184459051087 0.186443880058197 0  1.358107417651776 1.696381759610015 0  1.18859291992392 1.77598670078022 0  0.1875331222687418 0.7609599743339348 0  1.339536743965101 1.422080365801479 0  0.7788179348750389 0.9955343414928611 0  0.9062978492805438 0.1919636509126373 0  1.256007360640958 0.3160320559396114 0  1.09375 0 0  1.174986727221844 0.1594990293443933 0  2.34375 1.796875 0  2.318026474511116 1.589177949022232 0  2.34375 2.5 0  1.672742954892153 2.332882724550692 0  0.2683637361947215 1.874801596909639 0  2.174770749820102 0.5581009131310781 0  1.443279522965991 0.8870068372898454 0  0.3385416666666667 0.3571428571428572 0  0.78125 0 0  2.060421048269335 2.314363248763811 0  1.088078737088509 0.8967352118723447 0  1.087825368444708 1.454931510884769 0  2.018308232129541 0.8548495425854904 0  1.943987311736842 0.3246298523011434 0  1.71875 0 0  1.85337849796276 1.144833312386208 0  2.3486328125 2.1044921875 0  1.407588788651747 2.042968789119587 0  2.336309523809524 0.865366648092144 0  2.34375 0 0  2.5 0.15625 0  0.15625 2.5 0  0 2.34375 0  0.1638044648294291 1.242263417405867 0  0.356216654757926 1.032569427322806 0  0.3188217956111817 1.355736727000647 0  0.5924956460852111 0.36112522004736 0  0.6594216488965849 0.1603472116132387 0  1.841804599497131 1.72214349266521 0  0.15625 0 0  0 0.15625 0  2.115898634821499 1.894570904464496 0  0.7821877980253907 0.7129993435924866 0  1.003820447087786 0.4516053462784233 0  0.477562948779147 1.138333049293613 0  0.719493678605015 1.305655360135975 0  0.9772457618587566 2.020350128938537 0  0.8764738248887107 1.826219722709673 0  1.254787875123819 2.339010653832026 0  2.343597354852534 1.249982759769001 0  0.78125 2.5 0  0.46875 2.5 0  2.5 1.40625 0  1.09375 2.5 0  2.5 0.78125 0  2.5 1.09375 0  2.03125 0 0  2.5 0.46875 0  1.40625 0 0  0.46875 0 0  0 0.46875 0  0 1.40625 0  0 1.71875 0  0 2.03125 0  2.5 1.71875 0  2.5 2.03125 0  2.005424054645407 1.653223486966518 0  0.1538730573856537 1.559850281736677 0  2.33984375 2.33984375 0  1.166539506212474 1.922878979538754 0  0.3914885633949916 1.65887232812171 0  0.5795503163042564 1.766243562569382 0  0.399533125920212 1.946786875081388 0  0.7866324979014098 2.127719094551316 0  0.3654683023546834 0.1495701132219454 0  0.1527388747131078 0.6116379440619215 0  2.013737577140188 1.391056634712135 0  1.17635437372994 2.213329084238133 0  1.737118141866284 1.010577140843115 0  2.200707118087222 1.164723314085963 0  1.697018908736685 1.993548551451517 0  0.5387621649009668 0.6070503962352419 0  2.032805785855952 0.5330427622570983 0  1.082699501358059 1.667818725183932 0  1.503819781540653 0.5468420196858188 0  2.015409142866072 2.175941657590429 0  1.752057611265444 0.869642097111018 0  0.612251684107783 2.356045720700959 0  1.902817102342857 0.6607642211999982 0  2.159616561739693 0.7867739969338844 0  0.5120038350106624 2.197302352398502 0  1.888200216011548 1.919501662489862 0  1.495909909726654 2.16028358757309 0  0.489139876703609 1.443203008943564 0  0.8819175670410521 0.3301172743913011 0  1.882591144370812 0.8155965192707721 0  1.133979796994841 1.172526771862882 0  2.206217447916667 2.084147135416667 0  2.20361328125 2.36279296875 0  1.395746985657004 1.556054166359645 0  1.704383111516207 1.734750450338683 0  0.9575737847222222 2.36274223823052 0  1.035150984253136 0.1302833343179028 0  1.383966125325753 0.7651479963479179 0  1.64003252158672 0.6824316405528895 0  2.22550785055421 1.487078576356817 0  1.760964431499756 1.48495222505201 0  1.276460980673788 2.004207003584658 0  0.1341477688427096 1.828777507920502 0  1.542261434180652 1.155296658359034 0  1.334627911613854 0.9696897472490321 0  1.30794231473696 1.119420615785191 0  0.7028260459857245 0.4438906910721139 0  1.625757433094055 1.84268057552138 0  0.9818707849053143 1.165603626132254 0  2.0086489901463 1.243134585689553 0  1.934584460420609 2.374094051915812 0  1.798434376789567 2.38671361912528 0  1.206314791201715 1.382064292497919 0  0.6333752893366955 0.7023738550008095 0  0.7796219811205605 1.42573253164258 0  1.564399711917382 1.026040828857629 0  0.3385416666666666 0.4889012896825397 0  0.1041666666666667 0.390625 0  0.989112246382566 1.543537365516289 0  2.025724425454636 0.9846960595520872 0  0.6602885475034063 2.086117390485779 0  1.607130551925032 1.267198646640915 0  0.1317864544877056 0.8896173683400176 0  1.755387840017567 2.230364320056445 0  1.301540702984401 0.1216289692748247 0  1.433170657577442 0.3331052752740999 0  1.500459610550388 0.113513924782439 0  0.6494291520606965 1.029586599619295 0  1.010146149868299 0.794897284196169 0  0.3700844198238017 2.235390157870766 0  0.3360891767780704 2.36656279435396 0  1.876856241037701 1.437150669863757 0  1.778674102957329 1.245979347269706 0  0.5472829890977179 0.1005517127039925 0  0.4669074189005698 0.3416784232954367 0  1.472765289289269 1.850899166481903 0  1.555853593327178 1.608452097912802 0  0.6708955559113426 1.646561631116984 0  0.8164699620322933 0.5924479455478063 0  0.3167738989468366 1.758696809749795 0  0.2788007305565096 1.605499483471246 0  0.7821720982350511 0.181524936294752 0  1.376812251214195 2.313340247908297 0  1.785652202614777 0.5962261755537186 0  1.761467296310972 0.4679567244718574 0  2.2265625 1.8359375 0  2.3828125 1.9140625 0  0.5279531607054191 2.071552361614785 0  2.397573269551114 0.234375 0  2.383578172599618 0.3589298466020009 0  0.1024267304488855 2.265625 0  0.1164218274003825 2.141070153397999 0  0.2696857594953064 2.135405441512016 0  2.164961300137334 0.1375322943529536 0  2.137757548369486 0.2724194778647587 0  2.238873711826398 0.3626419179496562 0  0.1001414910226386 0.234375 0  0.2176339285714286 0.3478422619047619 0  0.2503620791333544 0.1061694061057066 0  2.336445461915368 0.1250451055247424 0  0.2154004640409726 2.3918124
[...]
<PointData  Scalars="f_49-1"> 
<DataArray  type="Float64"  Name="f_49-1"  format="ascii">3.0170115802438630e-05  1.4783198662868444e-05  7.7678912785973573e-09  1.4752847456351372e-04  4.9881704153835550e-06  1.8794782131362396e-08  4.1689575308481281e-05  8.9933176485114264e-05  1.1664941276787045e-03  9.4833521053782550e-05  1.0161382345517277e-05  3.5696691620354227e-05  8.5187957681444600e-05  6.0280858493617122e-09  6.4652743961169107e-07  1.1527392636993903e-05  2.8291978089962450e-04  1.6275086370209014e-06  8.7302995027186919e-05  2.5764143997045522e-05  1.8033599583194084e-04  3.9807465239204257e-04  6.2120785603591384e-04  7.5898853088988960e-04  9.1455491603478214e-04  8.8144232222752368e-05  4.3847172093497481e-06  7.8423245362861814e-05  2.1184838147176541e-07  1.9692834859110082e-07  7.8970526188500254e-05  1.3362053781033362e-05  1.6721974000275596e-04  6.5361686848523499e-04  1.4116315176788146e-05  5.8464477286397469e-04  1.3717475281291602e-06  1.4713674238228734e-03  9.7327321877146728e-04  5.1226325589127322e-05  6.7358426387259655e-06  6.8172178200861771e-07  1.2231473302970728e-05  -1.9288950583537614e-05  1.0418053152836879e-04  4.0869777660451580e-04  9.0343701302337572e-05  2.3051911102407677e-03  1.2992588488733058e-03  2.2404956369319139e-06  7.5487422365535730e-06  2.9899039969915693e-05  7.2623641048810535e-08  8.5932933566494928e-09  9.2072940840393476e-05  8.7762360798140365e-05  3.8113712133510106e-05  5.5129068240663273e-09  6.8861953214040364e-05  6.5254981286221993e-05  2.9494633665680441e-07  9.2145938081786217e-06  1.0740510745151205e-04  1.0941569978465004e-04  1.2711619382687052e-03  8.6792749972635635e-05  9.5889707593137529e-05  3.3771761826282005e-07  7.0350401729611019e-05  1.0496807187973075e-06  4.4824013920249098e-05  3.4934869883968984e-06  8.7126515015349587e-05  3.5290978692549381e-03  1.0861098947456961e-05  2.6328836520176442e-04  1.6540591620355509e-04  5.7833020743510940e-04  9.3658772222686339e-04  3.7549507454253071e-06  -2.1175218498272189e-05  6.2146371177779240e-06  9.8585718084992363e-06  3.0188543179578174e-06  7.4038408671896158e-07  3.0400187806865643e-08  4.8985049575962000e-08  8.5223696345648414e-05  8.0622374631320677e-05  6.0158575323199863e-05  2.8650223390272714e-07  5.8114533226817809e-08  5.1371819412799247e-04  6.2707119432288653e-08  6.2467266246727488e-05  1.5191546386450648e-04  8.8869899458512031e-05  2.3194929533241032e-07  9.3501756512610814e-05  5.3751181760626604e-05  1.4958242322044438e-03  1.1002812206670537e-03  8.5996856406086070e-05  3.4301543425312571e-04  2.3082308938749235e-06  1.9395976900460246e-03  9.3466241664635571e-05  5.4823292874038641e-04  1.3400331230459787e-05  1.5145471828101442e-04  8.7515516440830210e-05  9.0961120860803284e-05  9.1568054660787576e-05  1.3726671405343129e-03  6.8614592866765274e-04  1.4299552938323864e-05  4.5642351292316940e-04  4.8156426952057539e-07  1.3105682113663324e-03  1.3073008416337011e-04  9.2122808986344815e-05  5.8984563096186923e-05  4.4126403428252861e-04  1.7778826844874465e-03  4.9895532008547639e-06  1.5471520366478768e-04  2.3836702173643336e-03  4.4042653819924379e-05  1.3754426208342104e-04  2.0990373383733356e-06  8.5608530533651605e-06  7.8454500170690284e-04  1.0602033767490803e-04  2.8663485852685195e-06  7.4795891709320192e-07  1.3595448316245785e-03  4.3931765788478175e-04  9.9737993553029994e-05  1.4131649405778497e-03  2.1045334550551268e-03  7.9084883936900238e-06  5.2840357822329046e-06  6.3181447668234987e-06  5.9552722280450994e-06  2.4916747778510645e-05  3.3811488547421263e-06  2.8617586034943043e-04  3.2668236789798119e-04  8.6092828391628638e-05  1.1304515566407612e-07  6.0896242672028357e-06  7.8101408922663380e-04  8.7400021049815835e-06  7.9864917560936051e-04  2.1962978439985322e-04  1.3349095726873474e-03  5.4524305178125785e-07  4.9149784803709295e-07  1.3450866890481584e-06  2.0934225227992602e-06  2.2014337377481203e-04  3.7478265159552942e-04  4.1360024697824258e-08  2.7970058056999011e-08  6.7155666195116541e-09  2.9456834877788502e-05  4.4847440989425118e-05  8.9920210613109140e-05  9.7672299434291946e-05  8.9175066486201851e-05  1.0463231398796035e-05  9.8389734276644190e-06  6.6675896662266639e-04  1.3613455358755160e-05  1.2944152598248945e-05  3.5388723813230158e-04  4.9342348744074293e-04  7.2663395412600734e-06  1.1802036500774298e-04  2.8802189472703618e-04  8.6317063475645781e-05  8.9906751672082978e-05  6.5498515716020197e-05  7.5645396692007608e-08  3.6625413868663234e-05  3.1096140257737352e-05  3.3291568202288831e-08  3.9916867443088627e-05  8.0888634704834098e-09  1.3571343019744930e-08  2.8457903346349925e-07  5.7626203109443917e-09  3.1978106990712017e-06  1.1245881806954973e-05  9.5361515168334001e-05  8.8880978098844921e-05  8.7032667913273411e-05  8.0937556918014581e-05  2.2007191744827324e-06  4.2238936976887433e-05  1.2400907040700820e-04  8.7821287054803320e-05  3.7351682233893160e-04  1.6694720281897196e-04  8.7448030624857475e-05  8.6982670765157490e-05  8.5156748656955110e-05  8.0125663551968657e-05  1.1894061146558855e-05  1.1776310769131391e-04  7.3396298995730620e-06  7.9265900789259435e-05  2.2574560703730685e-06  1.9174733922245750e-07  1.3457152194378530e-03  1.7828850737590929e-03  3.4538036246637282e-07  4.2264927494952526e-04  3.4062815771593899e-06  1.0265046057690048e-03  1.8185395713015873e-06  5.3160091732632903e-05  8.3549488316736371e-07  1.7874595992222699e-07  7.1243458263124004e-05  1.0914941974043656e-03  3.2095333032543716e-04  8.8669032990108977e-05  8.1151928712675573e-06  9.7128522659683456e-07  1.3617331051986163e-03  4.9324858922280266e-04  5.5123594304976335e-04  1.5476039354501338e-03  1.1819132423503329e-03  5.6512268852546403e-05  6.9681541721459665e-06  4.6755703614606226e-06  2.4376983289262913e-06  2.6648939482516473e-06  2.3184536512819333e-04  2.0071681031144639e-04  8.6556452884061839e-05  5.0157243429590654e-05  3.5732049767788756e-05  3.2929320344764695e-04  1.7871214367905170e-05  1.4663109657531194e-03  1.8910180086133123e-03  1.5597927617623872e-06  6.4789728334615831e-04  3.9852716109619164e-04  1.6857725828541134e-03  1.8350751527293908e-03  1.9514832029907933e-04  7.7784377360996014e-06  3.3663692046617742e-03  1.9658495298582384e-03  4.7063382770912599e-04  4.9884469466585421e-07  8.1009904003038886e-05  1.0326999550579994e-04  9.2531671409509558e-05  7.1910940140339089e-04  4.5924360517316271e-06  3.8307289634466538e-06  2.7767890423559483e-06  1.1759938141891087e-03  1.4711540152544540e-04  6.5583634299212328e-05  4.8020443623150053e-05  4.5949133793853583e-05  1.4212717716796448e-05  1.0598495600200304e-05  3.1366864849075362e-05  1.2221805238663075e-03  1.2564557144161819e-03  8.7865117569584168e-05  6.0167658068394477e-05  8.6945633701589035e-05  8.7668324378659365e-05  8.9358847833930257e-06  8.2032053069605978e-05  1.4699560926386233e-06  1.3676865527514692e-06  1.0420617463431780e-04  4.5577930338130590e-05  8.1296160844187797e-05  1.2208780196015327e-08  1.8733477491230484e-08  5.9312056840714119e-05  7.4664099825464723e-05  7.4592208859351194e-05  1.1543183764935014e-07  1.4439545953036241e-07  7.3565280157703764e-08  -2.5903353825252359e-04  3.8670298331781173e-03  1.2714134228068937e-05  2.2306740958157445e-08  4.3371620531248173e-05  7.5749373735007212e-05  1.3726391266783875e-05  1.4290087104399157e-06  7.4327774614503281e-06  6.0083007005867043e-06  5.1186989303288105e-06  8.3754053716604364e-05  4.8614623752856606e-04  1.3482288710727538e-03  8.4127721718068015e-05  4.8517361387540170e-07  2.2421908733584555e-08  2.2510360437841422e-08  2.5720241307370843e-04  1.8554523070128591e-04  8.6534828922779682e-05  8.6131033532381196e-05  3.2812343156310617e-06  1.3562207759646013e-05  4.3012465738049237e-04  8.7663411618086068e-07  9.2461850918950663e-04  9.3027244196851639e-05  1.2568630653149359e-04  1.4738468303394297e-07  8.3030287381714630e-06  1.6256076210387856e-07  1.0499294107987618e-04  9.0615131592316619e-05  3.2269803884716620e-08  9.2857393445375816e-05  1.4491178218693681e-04  1.5206668705262884e-04  7.7118189947641123e-04  4.4278539444665734e-07  5.1709165284324803e-05  8.8489252747804049e-05  8.9426563525712294e-05  2.5146944789776648e-07  2.5880440063597631e-07  2.0166189981716811e-03  1.8259002385735004e-06  2.3715395705080955e-06  1.1990435158757639e-03  9.7113445152257215e-07  2.1373635801958350e-06  8.9722062625590413e-04  2.0183135096271657e-04  4.8284995452777927e-05  1.2861258738495250e-03  3.0710595974724431e-04  2.9316397107836639e-03  1.8914186898696659e-03  2.1173427064169081e-06  8.7379675346419201e-05  9.0420025407520778e-05  4.3807820633476254e-08  3.1787185041380856e-08  5.3791857804286472e-05  3.9730671448723357e-05  2.3255885313067443e-04  5.7986557649700570e-05  2.7086824677446568e-06  4.2555993032192181e-06  5.7365621433114753e-04  2.9095939146386232e-06  1.1508183617047285e-03  8.3766176078329052e-05  8.7923668123894851e-05  9.6147772446902836e-04  8.8401904187708290e-05  4.7772663429035970e-06  7.9065541516538029e-04  1.5400378017427190e-03  1.3383434647539492e-03  1.1170849862366611e-04  6.9130239419644440e-05  1.8133997956142208e-03  1.9792647248151126e-04  1.3631096265887994e-03  7.0876452396469571e-04  6.4097813828009641e-07  5.7779618116130275e-04  2.1419393257937622e-04  8.4564973866446159e-04  9.8757748810347120e-05  8.2412333300879676e-05  8.8803724778102568e-08  2.1203388890716972e-04  5.2311142942558888e-06  1.0027324785335683e-05  7.1886310824395311e-05  9.3227834854637225e-05  1.6098431653383965e-03  4.2834584672517441e-04  9.7081479876785684e-04  2.0119621923135636e-06  1.4345171805934897e-05  1.3055221579681496e-03  9.3729271468093525e-05  9.1722015659190918e-05  8.3381797693362147e-07  3.2278188034435714e-07  1.6239716972613800e-03  4.3791848818901859e-07  1.4084223666769471e-04  8.8351742329738744e-05  2.1339023336741296e-03  1.4496809842789467e-08  5.9828463336069397e-06  7.5653075116044978e-06  2.9951809743633753e-05  9.4909167152003546e-08  8.7217140942394124e-05  8.7881386015694718e-05  4.2854593276338450e-05  2.8327166189589608e-03  3.2839938389177102e-04  3.1947221484619739e-05  1.6222910710581458e-03  6.8891096489851335e-04  8.7346131818293374e-04  3.3048407208048435e-04  9.4107281946277535e-05  9.0739451841110900e-05  8.6696754371482895e-05  7.1100360272102346e-04  1.3487118361676621e-03  1.1643764850568540e-03  9.3499852560176659e-06  1.5537339141157153e-03  4.7954704263680944e-05  6.2544094143561141e-05  2.7279317372932683e-07  5.1750754534624372e-06  8.4946160903638242e-05  3.6659460715742831e-06  5.6768579102289851e-04  9.1576816056071614e-06  5.4195423793524449e-08  8.6975421272307633e-05  6.9076634405829823e-04  9.5694415583337801e-07  3.9331968017686253e-04  2.2736998373016444e-03  1.2619349892429642e-03  4.1697871936972461e-06  7.5062122008399395e-06  4.5397087846936290e-08  7.4675520502907433e-04  9.1015996138108003e-05  1.4748545707665692e-04  1.1461216375293713e-04  1.0591324335912025e-07  3.7883427307255155e-05  3.2197313817642225e-05  1.5959859789425918e-03  1.6958638716989812e-03  9.3180101217225016e-05  1.3852808622219143e-03  2.8828735270746602e-06  8.9719194398801919e-05  1.4639149997196333e-07  2.2362718299241693e-07  8.9068081969333768e-05  6.7582747145002690e-05  2.3085375203795805e-04  2.8313932011416920e-06  3.1726434606340969e-04  4.4859965729671411e-07  8.7123189399056754e-06  1.1478306043090268e-05  5.9916838842958323e-06  4.6116044470615037e-06  4.5260720305973981e-06  7.9202679683627354e-04  3.9762588119509294e-04  1.4520654256238003e-03  1.1216881795732123e-05  3.0968800998362851e-05  9.0173029353005161e-04  7.2287816745745766e-04  6.1776597914384507e-05  1.4893424841298182e-04  9.1656127457584829e-05  3.1907235090563612e-05  6.5784176072096538e-06  5.9717581567926786e-04  7.7356508919666387e-05  9.5862226990838355e-05  3.6016942246455331e-06  6.1884584441977784e-05  5.1740619888690947e-06  8.1560666455803898e-09  9.7698405720098462e-07  2.5974770202062824e-06  1.0505559122269410e-03  8.5455044974193668e-05  7.2548545032789368e-04  4.6998259470044735e-07  1.2764922749534045e-05  7.1395010172712887e-04  1.1574780021836274e-05  5.3977036833704516e-09  1.4630882067230563e-08  5.0776549889962784e-05  7.5547678933024911e-06  8.6500825590838859e-05  8.6711305708291435e-05  1.5335384125711327e-06  6.3625240338614514e-04  7.2561042456981778e-06  1.7358325858510328e-04  7.7811086802131466e-06  1.6401825966843721e-04  9.0394235550732165e-07  8.6554325424425700e-05  8.4420842695283164e-05  4.1596471929642202e-05  4.4339872710881992e-05  6.3883594302314324e-06  8.5505452227588336e-06  5.6461781415473485e-04  5.3780466579080975e-08  7.3647166619049390e-05  8.6937489981409394e-05  3.2419878570060660e-06  1.5774125255024887e-06  2.9698674001633251e-04  8.1148125681806016e-05  1.6342068481255408e-04  2.2101607087200169e-07  5.3227484466006502e-06  7.0405970904088182e-09  3.7694731113175993e-07  3.5644554519326219e-07  7.2545255467462567e-07  1.6323333607478854e-05  7.6818130681494796e-05  5.7093369701007509e-06  7.6957795968994036e-09  8.2422175351944788e-05  1.6704991992683690e-07  9.1000382923675098e-05  9.5271352744151532e-05  3.3849537526305959e-06  4.5321393395593153e-04  2.4393475172698864e-04  3.5380594409926367e-05  1.5925408440443389e-04  4.1478151028782412e-04  1.1335265799743124e-05  1.3762417274734432e-05  3.3954662027257587e-08  7.0127719507857579e-05  9.9900090251288961e-05  7.8668062882656411e-06  3.3478164674070822e-04  6.5431530085838279e-05  5.5383211471468476e-08  3.3077014606524495e-04  3.5226600870805016e-03  5.5931635028314800e-04  1.7597831107833261e-04  1.1760365870860227e-08  4.1205817495217626e-04  9.2638421683319396e-05  1.5056147339184249e-08  5.2113333809125389e-05  2.8960065290904048e-06  1.9775657642384548e-06  2.6142910826097487e-04  2.2633112982817853e-04  1.3691655704034726e-03  6.6519892309758295e-04  9.4600861994906046e-05  1.0663801961336385e-04  8.8005022085714695e-05  1.0185208226066664e-03  1.4808867837030890e-07  1.8656839837940596e-08  8.8538754837445138e-05  1.4318134154439773e-03  1.0366051836883785e-05  2.9547233106879601e-06  2.2200372963311786e-05  1.3638113259445675e-03  9.2362823827456388e-05  1.2339543832730587e-04  1.4094787026161424e-03  8.9627791217801402e-05  1.8924406606422829e-04  6.6826576258533428e-06  7.1209238762035766e-07  1.0430735922224827e-06  7.9408701658091457e-06  8.9160633160412575e-05  8.9134705029846100e-06  1.0162692854893565e-05  9.5613618326549658e-06  1.0818849756795026e-04  8.6245252095619196e-06  2.8287901636061657e-08  1.1621706694794662e-08  1.6525772424952577e-03  8.6455446157852542e-04  9.3131562400134099e-05  8.8635003411643046e-05  6.4907981085871487e-03  1.0913031697554485e-03  9.4017002673818344e-08  7.1431720841276686e-06  2.2578503578521292e-04  6.1296457719876836e-08  2.9343525099207558e-04  4.1930008597974020e-04  8.9942492862724738e-04  7.7261139726090051e-05  3.4250953510935348e-04  4.0250544128584857e-06  7.9298557191565916e-05  6.2490358471772549e-05  1.4037593754014667e-05  1.5932211243075664e-05  6.2656924360873041e-04  4.1870876762305893e-06  4.1806133814370044e-04  1.4068790014046440e-05  7.4338173916016143e-05  1.0597197105277198e-08  6.0327608002535540e-04  1.4816929338102708e-03  2.3514420175137737e-06  4.9696355018232856e-05  1.3079639444357172e-04  6.7699018786956440e-06  3.7441544922659804e-04  1.2256847775907467e-05  6.2851790124016455e-08  2.8223467625468267e-07  7.2697541922766546e-06  2.8115179475597187e-07  3.1622838455872193e-03  8.7228908520875284e-05  7.8624477810097570e-05  8.4172642612703535e-05  9.5140962221695579e-05  1.1147158111713734e-03  1.3486449583061710e-06  9.6688906083400544e-04  1.7587385346484155e-03  9.8953384982968916e-04  2.5674457718840835e-05  1.0219139206690092e-07  3.7845234093458652e-08  7.5358023800589055e-05  8.9956631792402212e-05  5.7880002952534980e-05  5.9654279924827992e-07  5.5029915398608891e-06  3.4525527227157756e-04  3.7128605482645420e-05  4.5607417889353372e-04  3.8177685667988130e-05  3.0354303312391812e-05  4.1311285908630611e-05  8.7372894532811637e-05  3.6744839824561828e-05  9.3321076271735791e-07  8.7453496896095385e-07  1.7321967451046362e-06  1.5624652916842757e-08  2.1584330815701466e-08  8.7809142184464295e-08  9.1464051089354485e-05  9.0412415200407355e-05  8.9412212957568196e-05  4.0562387993978182e-05  9.4253824406946552e-05  8.1179199472238829e-06  4.4602388054990772e-07  8.3859369060714753e-05  2.8995596726488466e-05  1.3017412456028893e-05  5.5354021603742496e-05  5.5918588666203335e-09  1.0792264726814088e-05  2.8069810749967059e-06  1.7264568358666310e-05  7.6329461927581371e-05  2.2503803624177840e-04  1.3282629606925454e-04  1.6757867060747012e-04  2.0502556393888605e-04  8.8185084202428392e-05  4.8477203995100356e-05  9.4018087795900819e-05  4.8795419163023870e-06  6.9066907603464598e-05  5.7185496734779849e-09  9.3000570927879004e-07  8.7683747798956947e-05  3.2802812385730620e-04  4.5602328320331650e-05  3.6868537934318197e-06  5.3145791366390387e-05  4.9882238888220585e-04  2.6844362554231554e-03  1.4483523923993010e-03  4.2023108417387637e-05  1.1375312755642999e-05  1.9770470007848999e-03  8.4123169026696618e-05  8.2945189078558677e-05  6.8776451309786606e-04  6.7385730496066671e-06  8.3228021508152149e-05  8.8456607853645898e-05  8.7816297703193139e-05  8.7536051311351351e-05  8.9364535835936650e-05  9.5521618684090567e-05  6.6087069584546147e-04  1.2956733248981620e-07  1.3411880497039455e-03  9.1353984554871839e-05  2.9015188909288247e-07  2.4249991999759132e-03  1.0238547889307664e-07  8.8057817145477193e-05  8.8261023696970385e-05  1.6829671200997277e-03  1.2046780894611463e-04  1.4035460765833441e-03  8.5951269768036025e-05  3.8448752251125288e-06  1.5929007681571893e-03  1.9032074585894235e-03  5.9648859980572174e-07  7.4064588746132751e-08  1.2416901417684060e-03  2.1679020886966171e-07  1.0432308787572211e-07  2.4053239390365791e-04  4.4272704043229700e-06  8.2938062441621790e-05  3.8330018347472746e-05  1.0306806782901675e-04  1.0529483083268995e-05  8.7323345745614380e-05  8.7159139228195904e-05  5.5930823015626775e-04  1.3968561865625129e-05  4.6295084591001648e-06  8.3794693063757051e-06  2.1656355793786539e-06  7.7582782332216184e-05  8.8879007582570748e-05  1.2399695005622558e-04  8.6950084087670189e-05  6.4022085814543832e-06  8.6306080260431652e-05  8.5800270750353478e-05  8.6624297115377619e-05  1.3508844600054605e-05  1.3019656286712421e-06  9.2699951198395773e-07  8.0013096651879203e-05  1.1524707691039947e-04  8.7740241016821311e-05  8.7555233103399198e-05  8.7130550898387646e-05  4.0111701782366929e-04  1.1539550934038174e-07  7.2390931130242967e-05  7.2442301082307451e-05  7.0365857364868792e-05  7.2178869062145774e-05  6.4527161115629099e-05  2.4496366003574156e-04  5.7851983743598438e-04  3.4845310955928931e-06  4.9392613906003789e-06  2.0723373432784469e-08  6.4904057301991052e-07  2.2372683930085854e-04  1.2001735648805158e-04  9.0150743965427603e-05  1.9765766135197585e-04  3.3064810306969023e-07  6.0187531037960297e-04  4.3747764145347220e-06  4.4706016931452149e-04  1.3201182782464006e-03  6.1764543610557089e-07  9.8500376916499681e-04  1.0802257755078433e-03  5.8107306553413098e-05  2.2528586203691039e-07  3.8560729975238903e-05  8.8567362704584148e-05  1.5503586142477978e-03  4.7532861522038246e-04  8.9715683903593646e-05  1.1821183952272999e-03  1.3431332755609190e-03  8.6812755754063465e-05  3.3688055339109447e-08  5.8021092770408350e-06  8.4943070853796157e-04  8.9682641766523048e-05  8.9381853097885997e-05  6.2278179596417127e-05  4.4365753563215035e-05  5.0436126430618651e-07  3.8019346144032142e-05  5.6604985889162826e-07  3.3488965816291556e-08  6.8512465343684907e-04  7.7693724216724069e-05  2.3420543526713138e-06  5.0393192322677248e-04  1.9759660448496367e-07  7.2115635051696694e-04  5.8282494903970970e-05  6.6724817407559371e-05  7.4231904367012160e-05  5.6154660061386412e-05  3.9623598381