<?xml version="1.0"?>
<VTKFile type="UnstructuredGrid"  version="0.1"  >
<UnstructuredGrid>
<Piece  NumberOfPoints="6486" NumberOfCells="12696">
<Points>
<DataArray  type="Float64"  NumberOfComponents="3"  format="ascii">0 2.5 0  0 0 0  2.5 0 0  2.5 2.5 0  1.25 0 0  2.5 1.25 0  1.25 2.5 0  0 1.25 0  1.25 1.25 0  0 0.625 0  0.625 0 0  0.625 2.5 0  0 1.875 0  2.5 0.625 0  1.875 0 0  2.5 1.875 0  1.875 2.5 0  1.770833333333333 0.7291666666666666 0  0.7291666666666666 1.770833333333333 0  0.9375 0.625 0  1.875 1.5625 0  0.642361111111111 1.163194444444444 0  1.341594827586207 1.883979885057471 0  0.46875 0.46875 0  2.03125 2.03125 0  0.3626104797979798 1.513178661616162 0  1.381740196078431 0.4564950980392157 0  0.9375 2.172619047619047 0  2.172619047619047 0.9375 0  2.096354166666667 0.4036458333333332 0  0.4036458333333333 2.096354166666667 0  1.684027777777778 1.163194444444444 0  0.3418803418803419 0.8693910256410255 0  1.642742622813391 2.162164207604464 0  1.275619849389031 0.8465650753054845 0  0.9136284722222221 1.434461805555556 0  1.732437511238546 0.3406962303960658 0  0.9714402568595876 1.029779313093998 0  1.52281746031746 1.485615079365079 0  2.1875 1.71875 0  1.06819722569879 0.2997236128493951 0  2.136114211309524 1.303478422619048 0  0.3125 0 0  0 0.3125 0  2.5 2.1875 0  2.1875 2.5 0  0.3200021620376328 1.192323085056694 0  0.6738456129277992 0.8304377375553881 0  1.757891808928991 1.861952730357003 0  1.5625 0 0  0.9375 0 0  0.3125 2.5 0  2.1875 0 0  2.5 0.9375 0  0 0.9375 0  0 1.5625 0  0.9375 2.5 0  2.5 0.3125 0  0 2.1875 0  1.5625 2.5 0  2.5 1.5625 0  0.7448220909826522 0.3003573636608841 0  1.027298850574712 1.871151477832512 0  1.331260495098891 2.197262878816185 0  1.207917681892289 1.582765010956622 0  0.4339993447432606 1.801186844743261 0  0.6337298768939392 1.443093039772727 0  2.049851190476191 0.6826636904761904 0  0.6584821428571428 2.219122023809524 0  1.89575676467455 0.9798457973793544 0  1.437570562095628 1.059380588255917 0  1.502090052505845 0.6987070896496241 0  0.2040860661083546 1.705323965099331 0  0.2083333333333333 0.46875 0  0.5070952039991439 0.2211150679997147 0  0.6916302856529919 0.5813591430410241 0  2.265625 1.953125 0  2.2265625 2.2265625 0  1.886424081252096 2.243391360417365 0  1.40625 0.202164758520858 0  0.2269345238095238 0.2269345238095238 0  1.152730869673694 0.5225850378741401 0  1.885631899587912 1.312095130148776 0  1.614808884009367 0.9049784971014416 0  1.890095442220658 0.5126535558463003 0  2.323168682795699 0.46875 0  2.268811725689575 0.2304742875213018 0  0.6002389442105756 1.967426444210576 0  0.1768313172043011 2.03125 0  0.2311882743104251 2.269525712478698 0  2.03125 0.176831317204301 0  2.280262553344767 0.6954945504579233 0  1.979219539285994 1.809922269642997 0  2.336309523809524 1.09375 0  1.09375 2.336309523809524 0  0.9314042474388009 1.662973812215543 0  0.1634067999087722 1.40625 0  2.337090640094896 1.40625 0  1.141616997467638 2.069311773587991 0  0.46875 2.338939559681489 0  1.542440307908715 1.734944797244472 0  1.556713687786879 1.956977865354753 0  0.8264238995344066 1.975424467820646 0  1.466326331454725 1.275271369760862 0  1.655675324257095 0.5444159974393489 0  0.3385416666666666 0.6479255698005697 0  0 0.78125 0  0.5236073939200119 0.984090461540625 0  2.091665741047893 1.519793517904215 0  1.71875 2.5 0  0.5356538886262603 1.623137930505009 0  0 1.09375 0  0.1932884281517095 1.015625 0  0.8569313582417669 1.2198915584249 0  0.8876981284879677 0.8329884081524883 0  1.115618488474214 0.7219586973356271 0  1.186950366204949 1.043465130075318 0  2.057459118787237 1.110823087309335 0  1.830651283878689 2.049810069572418 0  1.689107969301489 1.367247437031697 0  0.4921048768039656 1.298643370653124 0  0.8213975694444444 2.336309523809524 0  2.03125 2.5 0  1.049729400480002 1.283723261332814 0  1.308101375801673 0.6489479469700392 0  2.5 2.34375 0  0.4968777175037714 0.7562964879736076 0  1.40625 2.5 0  1.501347663534097 2.307027627307738 0  1.602813712048603 0.1926218191360736 0  0.8393082906308107 0.463778306132633 0  1.682663349152719 1.598471865581041 0  0.7774174680851571 1.560004941327907 0  1.554204170364662 0.3898593897892066 0  1.842184459051087 0.186443880058197 0  1.358107417651776 1.696381759610015 0  1.18859291992392 1.77598670078022 0  0.1875331222687418 0.7609599743339348 0  1.339536743965101 1.422080365801479 0  0.7788179348750389 0.9955343414928611 0  0.9062978492805438 0.1919636509126373 0  1.256007360640958 0.3160320559396114 0  1.09375 0 0  1.174986727221844 0.1594990293443933 0  2.34375 1.796875 0  2.318026474511116 1.589177949022232 0  2.34375 2.5 0  1.672742954892153 2.332882724550692 0  0.2683637361947215 1.874801596909639 0  2.174770749820102 0.5581009131310781 0  1.443279522965991 0.8870068372898454 0  0.3385416666666667 0.3571428571428572 0  0.78125 0 0  2.060421048269335 2.314363248763811 0  1.088078737088509 0.8967352118723447 0  1.087825368444708 1.454931510884769 0  2.018308232129541 0.8548495425854904 0  1.943987311736842 0.3246298523011434 0  1.71875 0 0  1.85337849796276 1.144833312386208 0  2.3486328125 2.1044921875 0  1.407588788651747 2.042968789119587 0  2.336309523809524 0.865366648092144 0  2.34375 0 0  2.5 0.15625 0  0.15625 2.5 0  0 2.34375 0  0.1638044648294291 1.242263417405867 0  0.356216654757926 1.032569427322806 0  0.3188217956111817 1.355736727000647 0  0.5924956460852111 0.36112522004736 0  0.6594216488965849 0.1603472116132387 0  1.841804599497131 1.72214349266521 0  0.15625 0 0  0 0.15625 0  2.115898634821499 1.894570904464496 0  0.7821877980253907 0.7129993435924866 0  1.003820447087786 0.4516053462784233 0  0.477562948779147 1.138333049293613 0  0.719493678605015 1.305655360135975 0  0.9772457618587566 2.020350128938537 0  0.8764738248887107 1.826219722709673 0  1.254787875123819 2.339010653832026 0  2.343597354852534 1.249982759769001 0  0.78125 2.5 0  0.46875 2.5 0  2.5 1.40625 0  1.09375 2.5 0  2.5 0.78125 0  2.5 1.09375 0  2.03125 0 0  2.5 0.46875 0  1.40625 0 0  0.46875 0 0  0 0.46875 0  0 1.40625 0  0 1.71875 0  0 2.03125 0  2.5 1.71875 0  2.5 2.03125 0  2.005424054645407 1.653223486966518 0  0.1538730573856537 1.559850281736677 0  2.33984375 2.33984375 0  1.166539506212474 1.922878979538754 0  0.3914885633949916 1.65887232812171 0  0.5795503163042564 1.766243562569382 0  0.399533125920212 1.946786875081388 0  0.7866324979014098 2.127719094551316 0  0.3654683023546834 0.1495701132219454 0  0.1527388747131078 0.6116379440619215 0  2.013737577140188 1.391056634712135 0  1.17635437372994 2.213329084238133 0  1.737118141866284 1.010577140843115 0  2.200707118087222 1.164723314085963 0  1.697018908736685 1.993548551451517 0  0.5387621649009668 0.6070503962352419 0  2.032805785855952 0.5330427622570983 0  1.082699501358059 1.667818725183932 0  1.503819781540653 0.5468420196858188 0  2.015409142866072 2.175941657590429 0  1.752057611265444 0.869642097111018 0  0.612251684107783 2.356045720700959 0  1.902817102342857 0.6607642211999982 0  2.159616561739693 0.7867739969338844 0  0.5120038350106624 2.197302352398502 0  1.888200216011548 1.919501662489862 0  1.495909909726654 2.16028358757309 0  0.489139876703609 1.443203008943564 0  0.8819175670410521 0.3301172743913011 0  1.882591144370812 0.8155965192707721 0  1.133979796994841 1.172526771862882 0  2.206217447916667 2.084147135416667 0  2.20361328125 2.36279296875 0  1.395746985657004 1.556054166359645 0  1.704383111516207 1.734750450338683 0  0.9575737847222222 2.36274223823052 0  1.035150984253136 0.1302833343179028 0  1.383966125325753 0.7651479963479179 0  1.64003252158672 0.6824316405528895 0  2.22550785055421 1.487078576356817 0  1.760964431499756 1.48495222505201 0  1.276460980673788 2.004207003584658 0  0.1341477688427096 1.828777507920502 0  1.542261434180652 1.155296658359034 0  1.334627911613854 0.9696897472490321 0  1.30794231473696 1.119420615785191 0  0.7028260459857245 0.4438906910721139 0  1.625757433094055 1.84268057552138 0  0.9818707849053143 1.165603626132254 0  2.0086489901463 1.243134585689553 0  1.934584460420609 2.374094051915812 0  1.798434376789567 2.38671361912528 0  1.206314791201715 1.382064292497919 0  0.6333752893366955 0.7023738550008095 0  0.7796219811205605 1.42573253164258 0  1.564399711917382 1.026040828857629 0  0.3385416666666666 0.4889012896825397 0  0.1041666666666667 0.390625 0  0.989112246382566 1.543537365516289 0  2.025724425454636 0.9846960595520872 0  0.6602885475034063 2.086117390485779 0  1.607130551925032 1.267198646640915 0  0.1317864544877056 0.8896173683400176 0  1.755387840017567 2.230364320056445 0  1.301540702984401 0.1216289692748247 0  1.433170657577442 0.3331052752740999 0  1.500459610550388 0.113513924782439 0  0.6494291520606965 1.029586599619295 0  1.010146149868299 0.794897284196169 0  0.3700844198238017 2.235390157870766 0  0.3360891767780704 2.36656279435396 0  1.876856241037701 1.437150669863757 0  1.778674102957329 1.245979347269706 0  0.5472829890977179 0.1005517127039925 0  0.4669074189005698 0.3416784232954367 0  1.472765289289269 1.850899166481903 0  1.555853593327178 1.608452097912802 0  0.6708955559113426 1.646561631116984 0  0.8164699620322933 0.5924479455478063 0  0.3167738989468366 1.758696809749795 0  0.2788007305565096 1.605499483471246 0  0.7821720982350511 0.181524936294752 0  1.376812251214195 2.313340247908297 0  1.785652202614777 0.5962261755537186 0  1.761467296310972 0.4679567244718574 0  2.2265625 1.8359375 0  2.3828125 1.9140625 0  0.5279531607054191 2.071552361614785 0  2.397573269551114 0.234375 0  2.383578172599618 0.3589298466020009 0  0.1024267304488855 2.265625 0  0.1164218274003825 2.141070153397999 0  0.2696857594953064 2.135405441512016 0  2.164961300137334 0.1375322943529536 0  2.137757548369486 0.2724194778647587 0  2.238873711826398 0.3626419179496562 0  0.1001414910226386 0.234375 0  0.2176339285714286 0.3478422619047619 0  0.2503620791333544 0.1061694061057066 0  2.336445461915368 0.1250451055247424 0  0.2154004640409726 2.3918124
[...]
<PointData  Scalars="f_16-1"> 
<DataArray  type="Float64"  Name="f_16-1"  format="ascii">5.6157156434586948e-04  1.4224397467193476e-08  7.7225182706782426e-08  9.2137412589196794e-04  8.4594051684529117e-08  3.4642950026488746e-06  5.9626560180444548e-04  5.6548857561081092e-04  1.1679000187489097e-03  5.5549970716297335e-04  8.0537242452516373e-08  5.6213173967645138e-04  5.6545635243424519e-04  7.6952020617565653e-08  8.1261340455486268e-08  1.9917474326404985e-04  1.0048991198991308e-03  1.4660953699185861e-06  6.0227379450636517e-04  2.2679065918721343e-04  4.9346100757198085e-04  1.1465614249229982e-03  1.1139970103459477e-03  1.3045977350951362e-03  1.0013618746427171e-03  5.6851513800270249e-04  6.0039097927876754e-07  5.8375769007063894e-04  1.0201706411543994e-06  8.0185445015461937e-08  5.6529782398688478e-04  1.6594193703442443e-04  9.7622397691300906e-04  1.1006232364517510e-03  1.7042495930898717e-04  1.1805490580272114e-03  8.4044744806307795e-08  1.3880318150841355e-03  1.0335246619984522e-03  2.9693966921833203e-04  5.4803984937232531e-07  4.0857221106002165e-05  5.1419328275360866e-08  5.6324528031009337e-05  5.6525577040393430e-04  1.1317937935599559e-03  5.9491914618278719e-04  1.8466087140405333e-03  1.1664339369699839e-03  8.2851229054465491e-08  8.5913422903458965e-08  5.6140507512253998e-04  7.9444696825777572e-08  1.6422870166705140e-07  5.6532995941735420e-04  5.6549311134770149e-04  5.6466213990824423e-04  7.6755969951345289e-08  5.6494369629827689e-04  7.3524452178863045e-04  3.9216043019283697e-05  8.3896873650412269e-06  7.3327091731780782e-04  7.4932578814492575e-04  1.3486808536194313e-03  5.6626275286833830e-04  6.9386906588393682e-04  1.5275135471860952e-07  5.6556719160243856e-04  1.1250536826593858e-05  2.8791500582030563e-04  8.4870956190046594e-06  5.6551269345842762e-04  3.0877830601391616e-03  1.5055113557945595e-05  7.2825871221586264e-04  5.1171931848550869e-04  9.6631301454623857e-04  1.1757223680773058e-03  8.5732725040217971e-08  2.5121289157695376e-04  1.0850882029242402e-05  1.5120904536935871e-04  3.6026698340610237e-05  9.6806665907688146e-08  7.8212325728021801e-08  7.8727675083780228e-08  5.6760001461167756e-04  5.6534998724370067e-04  5.6449056545053661e-04  8.0336952732084473e-08  9.1585652392583616e-08  7.4594534654309622e-04  1.9404252953842510e-06  5.8948522972126301e-04  8.3546510161130517e-04  5.6564995106713758e-04  2.8903723992261827e-05  6.8991837006585066e-04  5.6400708583065806e-04  1.2894826934901297e-03  1.2256823205947676e-03  5.8910056779689344e-04  6.7905406161145553e-04  2.9075589703918336e-07  2.1153236749255656e-03  5.6449972764314549e-04  1.2929936043983448e-03  1.7621678740516647e-04  8.6765810738545274e-04  5.7990822230234035e-04  5.6544830448910252e-04  5.7957461630273965e-04  1.4982559614282326e-03  1.0461332139906597e-03  1.5918459324168693e-04  7.9861667955312475e-04  1.4144230707207931e-05  1.2081160214924718e-03  4.4452031347458093e-04  6.6097101966398767e-04  5.6618143768957926e-04  1.1126140022257940e-03  1.5086737717756548e-03  1.7946629333862127e-05  7.7322557729821444e-04  2.0692518191723530e-03  6.4472071680412245e-04  8.0899727930618733e-04  8.2930119586996212e-08  7.2652416569503672e-05  9.1136717347469940e-04  7.4008954996185609e-04  1.1487132774155068e-07  8.1318699147968022e-08  1.3321543543154395e-03  1.0530916461651844e-03  7.3369281473220312e-04  1.2670015294316509e-03  1.7306507686440013e-03  2.1397386914627752e-07  1.8734539631955445e-07  8.5400710159142964e-08  9.0877721401082590e-08  2.3136806586229850e-04  9.8342332515443051e-05  1.0509638894189528e-03  9.5778828878744122e-04  5.6548446791046807e-04  8.1827560157676641e-08  8.6312132971507065e-05  1.3502414687349531e-03  8.6037426251558371e-08  1.1566066714866798e-03  6.1999310870737665e-04  1.3964001135250601e-03  1.1360777930180605e-06  8.0974794267307600e-08  8.2072930918264296e-08  5.9223649624027570e-05  6.2431022091451790e-04  9.8742631489541965e-04  1.6865749822698480e-07  7.8462736217350336e-08  7.7081694784156411e-08  5.6153425067325064e-04  5.6356526767064100e-04  5.6634645102385847e-04  7.1379604087467013e-04  5.7164939717839740e-04  1.3330539702294906e-04  5.1680012912511070e-07  8.3934716886990889e-04  1.0616828271437687e-08  5.9922142097961351e-07  6.5521632706629313e-04  9.5531522955460155e-04  1.5326629406130891e-05  8.0147144368339384e-04  1.0242377719734748e-03  6.2289274033596224e-04  6.4961092632991122e-04  6.3384831448753010e-04  7.7758843326818656e-06  5.6268132956276942e-04  5.6156454341954013e-04  1.2297935513003569e-05  5.7319816243450240e-04  8.5050512489058455e-08  6.6612535035526427e-07  8.0432695572824356e-08  7.6482214004939319e-08  8.3643334662905227e-08  7.1410356697637892e-08  5.1416323645886452e-04  5.6549337961417552e-04  5.6548773960016674e-04  5.6535566737653308e-04  9.5916009491967848e-05  3.6512069381149169e-04  4.2847784739545776e-04  5.6552375341924936e-04  9.4833087946444316e-04  8.3277732162656993e-04  5.6691477550078995e-04  5.7317992442377423e-04  5.6555713898411063e-04  5.7131519493320779e-04  5.0305802908096848e-06  9.3965931178335534e-04  1.3022185505632682e-04  6.4284849181714626e-04  4.1192995708369103e-05  8.4623836993368564e-06  1.2483786957359921e-03  1.7920546172923220e-03  8.5798470628316132e-08  1.0597269194712658e-03  8.9821812334727062e-07  1.1410298355918993e-03  8.9192511275024097e-06  5.6402091157801797e-04  2.4110111852339197e-07  2.0916490988776559e-07  5.6509845154299027e-04  1.0614536004443492e-03  9.5018335472525682e-04  5.9698034612736266e-04  5.2320593237533674e-06  1.7395095270788361e-06  1.2880618948089553e-03  8.1510119489572243e-04  1.0939936911685229e-03  1.3209617315255956e-03  1.1011159752093273e-03  5.7041963837131541e-04  9.3606305798409887e-08  4.0895049968531673e-05  2.1235014069514203e-06  8.4093341000672668e-05  5.5006042424296129e-04  8.7279936822431384e-04  5.6547637324167192e-04  2.9923003260072062e-04  2.7641036081639574e-04  6.7433989264239613e-04  1.8532802149459865e-04  1.2701867251021714e-03  1.5521783422599359e-03  5.5742908465024483e-05  1.1266753755967925e-03  1.0204416773570201e-03  1.4215450325332909e-03  1.6985925860144965e-03  9.1898822043318758e-04  1.2425655874402357e-04  2.7252983062010187e-03  2.7678064762916990e-03  1.1041982789441879e-03  4.8140613977575531e-06  5.6712712484011259e-04  3.9754905254855673e-04  5.7849759702760723e-04  1.1211862327899029e-03  8.4910224856106552e-08  1.1559682697300316e-07  8.3244228504067501e-08  1.5430276220131133e-03  5.1580559538534469e-04  5.6479114558739157e-04  5.6351732856241494e-04  2.9005684123337123e-04  1.7189402505853518e-04  2.2664443901872695e-07  3.2155177114513679e-04  1.2706835168092262e-03  1.1592599110097151e-03  6.1302341836758935e-04  3.8958629241140025e-04  5.6562752976523209e-04  5.6576652350314913e-04  4.0615236790959975e-07  7.0887455306450681e-04  2.3816148747146066e-07  1.0165103987998856e-07  4.0455512572734804e-04  3.1641996504988275e-04  5.6566846386943859e-04  7.7604083405127701e-08  7.7670537162808132e-08  5.6449104347526383e-04  5.6515022514623775e-04  5.6516766071069589e-04  7.9520280829670330e-08  7.9681256762919134e-08  7.9002056409032964e-08  4.3815437180785898e-04  3.5268127579154351e-03  4.8414209105759068e-07  7.8283823470698744e-08  5.6303458402507116e-04  5.9993732843941730e-04  2.6500164610013972e-07  8.2184895991077961e-08  7.5285814018531748e-05  1.3499423380066423e-06  4.2785473691498147e-06  5.6541120041297597e-04  7.5626194687774346e-04  1.5397551996654474e-03  5.6543010195788128e-04  8.0905237997373919e-08  7.8545975729422604e-08  9.1997118108923293e-08  7.5149094945901342e-04  6.4550968880900197e-04  5.7904979178185600e-04  5.6660922104126757e-04  2.3392829501788894e-05  1.8185575547465622e-04  7.3688235657176041e-04  8.3456689176530601e-08  1.5039584583355170e-03  6.7843006712646546e-04  7.7785600526107429e-04  1.0234965263829729e-07  9.2376514826086965e-08  2.4763723244588040e-06  7.3207254346089961e-04  5.7272787101430526e-04  3.9869270881685037e-07  5.8245645317190882e-04  8.4123034238713752e-04  4.6598822686723883e-04  8.9500112053672685e-04  8.2153291441985608e-08  5.9202413111378045e-04  5.6643836628527983e-04  5.6552476663563808e-04  3.2509969440380799e-05  2.5214612176276684e-05  1.6524253718410611e-03  8.2455730523744937e-08  7.7777613798805179e-06  1.1892826155413111e-03  8.1624717164229667e-08  8.2573911346458826e-05  1.1691823570822433e-03  5.5704864321629174e-04  5.6383956384905198e-04  1.4376625285259703e-03  1.2183079416587335e-03  2.3685256408170910e-03  2.2267015988502010e-03  1.1116075293743935e-07  5.6549237918563755e-04  5.6559679507847281e-04  9.5649383523298303e-06  2.3052380111238179e-06  6.3527907166969642e-04  5.6289911609352233e-04  9.3215177557792283e-04  3.1138553208993425e-04  8.3134321123123962e-05  2.9402103526640921e-06  1.1434143230344067e-03  8.6942250834312146e-08  1.2103356242272867e-03  5.8687355352988048e-04  6.3170979521572936e-04  1.0465507548890012e-03  5.6549938466378218e-04  1.2986218975272651e-04  1.0227401361311726e-03  1.3188708980429425e-03  1.2976819326350319e-03  4.4699484640380982e-04  7.1633182367015894e-04  1.7711225868942458e-03  6.2141533736678918e-04  1.4242829743241487e-03  1.0348406434505708e-03  4.8126295048105936e-07  1.2055223308424375e-03  9.0026829317365763e-04  1.2445356213751958e-03  7.0155753894620820e-04  6.1471434181071605e-04  5.9224746086434325e-07  9.2626287527243197e-04  1.0029508925904579e-06  1.2873824998184092e-05  5.7019185839272729e-04  6.5503586841371387e-04  1.4826754201742629e-03  7.2652008550744306e-04  1.0432079660004413e-03  8.4596509895211895e-08  1.8089485753390832e-04  1.4193665119634051e-03  9.8157494021783504e-04  5.6684580522585373e-04  1.7557104736371250e-05  4.0853795750323482e-06  1.3891154413737644e-03  2.3815581976010550e-05  8.2129017097175956e-04  6.1774831355214084e-04  1.9283546528557952e-03  7.7748121199392778e-08  3.6246443039013636e-05  9.0028890757231145e-05  2.5902614882651002e-04  7.9560630588440831e-08  5.6950649048603439e-04  5.7605174540535859e-04  2.9098202636985743e-04  2.2773565428715020e-03  1.1128678063966227e-03  5.6175286263339592e-04  1.3965471891396761e-03  1.1302446761474291e-03  9.4041797986582100e-04  9.5429487319887048e-04  6.8284898588177661e-04  6.3738206641243212e-04  5.7142329917788000e-04  8.6388837595679428e-04  1.1988943660678037e-03  1.1122214272015032e-03  8.4836359702530091e-08  1.4209644356449865e-03  5.6514220245486974e-04  5.6540688746147092e-04  8.0296552436730449e-08  9.5373262750445635e-08  5.7265545170348921e-04  8.3850236821954163e-08  1.0734571596062433e-03  1.0996618251909799e-07  8.0812634964774332e-08  5.6548841972667687e-04  9.9302082723050334e-04  8.1798990886013225e-08  1.0666946812843917e-03  1.8118791420432226e-03  1.1499418048137304e-03  1.1436833458668016e-05  7.7513659318682357e-07  7.8984626099112234e-08  1.1910228562796597e-03  5.6694183418180475e-04  8.0949654153242442e-04  4.7352896007101918e-04  2.7330792367035345e-07  5.6748778633500501e-04  2.5906736993192302e-04  1.8649401398743448e-03  1.4736978106150303e-03  5.7542118452274973e-04  1.3147205248051214e-03  1.1715398510967459e-06  5.7049542966008840e-04  7.9913144045578765e-08  8.0127939547675375e-08  5.9073544300942786e-04  5.7395386697425528e-04  1.0270625699911442e-03  2.4654137404299088e-07  1.2489268008693852e-03  8.0807767604365267e-08  3.7984536320123580e-05  1.2940279554626117e-04  1.6837309267355241e-07  2.2816328248639879e-07  1.0243860631153376e-07  1.1886614602478430e-03  1.0123363760229905e-03  1.3670750303276574e-03  1.2539915861160854e-06  5.6146379518102368e-04  1.1720042304947853e-03  1.0938106689282940e-03  5.6461069140467169e-04  8.6568914374545868e-04  7.9228479873481882e-04  2.6869516044714006e-04  1.3467860531783914e-07  1.2392072694829438e-03  5.6561970408405729e-04  6.9898590643223694e-04  2.1966540994804565e-07  3.1270032749057428e-04  8.1988324866972802e-05  1.0662927181122230e-07  5.6342525688355676e-05  7.4801280498034363e-05  1.1924539526268986e-03  5.6545067010206108e-04  9.3375562601007991e-04  1.1736318381944985e-07  1.5927487322244397e-04  9.6178487185612075e-04  6.9315219705569640e-08  7.6469130959056009e-08  7.7318397974747968e-08  5.7377151653977758e-04  9.3077351549325652e-08  5.6562047228056499e-04  5.6549831083064497e-04  1.4661970698803722e-05  1.1435182991399845e-03  3.3301675666597304e-06  8.3659009985882435e-04  6.0652034502355679e-05  9.1941973581726746e-04  3.1393694571182811e-05  5.6547754776147408e-04  5.6581787547442487e-04  5.6274278719914644e-04  5.6304565791243208e-04  8.6178703811456533e-08  1.6395491480889308e-06  8.5031735739450750e-04  1.1975294137840604e-07  5.6717715647720335e-04  6.0013701604340059e-04  7.4448657814115844e-05  3.0118893479753395e-05  5.9487562195726989e-04  5.6536249842502491e-04  4.7591596236009649e-04  9.2035463870703272e-08  8.5139450290898494e-08  7.8922969698245540e-08  1.4854158386435325e-06  3.2924957092035227e-07  3.7724092315376607e-06  2.0583230170367268e-04  3.6193930929567390e-04  1.3477890515946737e-04  7.7185387900830353e-08  6.3690952457768322e-04  8.1050420271563226e-08  6.0829358273965469e-04  6.8703377192809250e-04  6.0443940764587404e-05  1.0194439781544893e-03  9.2269456570389632e-04  2.6116056556111321e-04  5.8708317421381825e-04  8.0896207541435682e-04  1.4295785722044849e-04  1.7540658501932673e-04  7.8336787910888224e-08  5.6499137300366359e-04  7.1087944424686107e-04  1.4718717622602191e-05  6.2616135035894885e-04  5.8045007275588740e-04  7.8935480174494590e-08  9.9319479914947986e-04  3.0481724174160419e-03  1.1933096862813755e-03  8.4588318394425617e-04  7.7606397260329063e-08  6.9877279136225877e-04  5.6519050318604679e-04  7.9469940709963260e-08  5.6392487903183315e-04  8.3762521728572481e-08  5.5996252069964713e-07  9.0766707305304237e-04  7.9958771479406068e-04  1.2184391822422222e-03  1.1094731049285384e-03  4.5843226192781298e-04  7.7339585758902059e-04  5.9795112999132748e-04  1.2649752955809460e-03  1.1762021985225557e-05  1.5337049169992965e-07  6.3480514985995724e-04  1.2554874416239167e-03  1.4343582966340441e-06  7.1922829593900429e-06  2.7013452208162771e-04  1.2564959764004972e-03  6.4016325572848083e-04  7.9809219930729964e-04  1.2280224807957143e-03  5.8645127217056569e-04  5.3814042490183008e-04  7.3007058971427665e-06  4.6481995506698673e-05  5.4164934693269230e-06  7.6493253507883225e-05  5.6667647168346877e-04  5.4492854926587470e-05  1.2031273114521885e-07  3.8816180368823102e-06  5.3697385567079751e-04  6.4416755875044171e-05  9.6135636288410918e-07  2.9670281767816534e-07  1.3966592360489755e-03  1.2790124469796074e-03  3.9781711889700792e-04  5.7031863111049795e-04  5.5473897895355374e-03  1.0517134586332439e-03  4.8213524275245705e-06  8.5692513629561386e-08  5.5702631593826336e-04  7.9366873001134006e-08  6.5607434952784502e-04  1.0149821011373082e-03  1.1238449042522312e-03  3.8939287572488851e-04  6.3826624772202688e-04  2.6643991046947401e-05  6.8215439904414877e-04  6.0794126094061522e-04  1.3883646916287000e-08  1.7894319346158543e-08  8.3461852557726104e-04  8.4102029548190572e-08  9.0229169836389118e-04  3.4086923508595780e-05  5.6517852931066968e-04  7.7048915759784199e-08  1.0589521878227577e-03  1.5037206887144998e-03  2.5676993037600398e-05  2.9065892056411166e-04  7.9854347865597464e-04  2.0927485709143002e-06  1.0643153852310009e-03  2.0332149488783274e-07  7.9225956857154260e-08  8.0495884229001774e-08  1.6059617694342587e-07  7.6561938110625112e-06  2.5939528969311223e-03  5.6562489790069545e-04  5.7593153137712992e-04  5.7789364035396680e-04  6.8572701002378976e-04  1.1176110542006124e-03  8.2034792972520832e-08  1.0081355525640855e-03  1.5403551527373102e-03  1.2380669502945246e-03  2.2873790456686441e-04  1.5242421667747240e-05  4.9737061848341054e-06  5.6520429513861811e-04  5.6557356615339965e-04  6.6880772362959851e-04  5.0550173443288447e-05  8.5011147432183603e-08  1.1049502565830536e-03  5.6334069545619812e-04  1.1333943986706397e-03  5.6257718004172673e-04  5.6163233602820868e-04  6.1692815041966521e-04  5.6549147499521709e-04  5.6237324554951260e-04  6.3765110895751820e-05  8.1615089860082362e-08  8.2473966289859383e-08  1.5338073442201756e-06  6.3789534687068892e-06  2.3195355295405751e-05  5.6539280731366867e-04  5.6547705960367377e-04  5.6549276503521726e-04  5.8296914907534942e-04  5.6234068342106576e-04  8.5977758153452565e-08  8.0864990566548277e-08  5.6542819253949789e-04  5.6143067430113438e-04  2.7899125957267086e-08  5.6435513996019285e-04  7.6904204957207579e-08  7.5498984962409543e-08  8.3286180015959146e-08  4.1399379624247635e-06  3.8731857776814463e-04  9.4278438321912777e-04  6.7066539554726484e-04  8.6642075499329500e-04  9.8093011312581522e-04  5.6549369134870856e-04  6.8558433889166510e-04  5.4593320786701274e-04  1.3788964150242316e-04  4.5750472420130712e-04  7.6603576058024112e-08  6.2441804263271595e-07  6.8960516564108617e-04  1.0062644546760208e-03  5.6394600896894523e-04  3.4475811661221848e-06  6.0986723596890549e-04  1.0226780629853322e-03  2.1164687325952551e-03  1.7032052048748401e-03  2.8169833738782009e-04  1.1142768655938662e-07  1.6514890743076871e-03  6.1500569223525258e-04  5.6540877068078231e-04  1.2665398254677750e-03  2.6419718303328956e-05  5.9772128850590933e-04  5.6556256873952968e-04  5.6549570354838259e-04  5.6553878105009437e-04  5.6583656279823077e-04  7.7697921252410293e-04  1.6914797135966827e-03  3.8981985424869908e-06  1.2778280290094860e-03  6.6497271653550400e-04  1.9977511684553156e-05  1.9456744372165955e-03  1.9712410002493548e-05  5.6570459433357670e-04  6.5538424110111039e-04  1.4383098900836060e-03  8.2234983009939297e-04  1.2474702750084757e-03  6.0299397492612553e-04  6.8443072572368603e-07  1.6290947229129649e-03  1.6174531138133479e-03  8.2358951636356131e-08  1.1657200100750980e-06  1.6188384839644786e-03  4.6623620037493326e-07  1.1920961505319060e-07  9.6912335468219389e-04  8.9036661772912951e-05  4.3669983482805925e-04  2.7910940860623548e-04  4.9125188015194748e-04  1.5946003470764105e-04  5.8219238332530166e-04  5.9075099384086195e-04  1.0635201861433745e-03  1.7351831646824153e-04  1.0248048221190888e-04  1.3925831252884451e-04  7.0562438764498346e-05  5.6686438110420075e-04  5.6550348419920457e-04  7.6651768214094852e-04  5.6837599928650975e-04  7.8123400664006852e-05  5.6579930006593821e-04  5.6549481026259946e-04  7.2911129625208087e-04  1.6245872578996630e-04  4.2261488578742330e-07  1.5004040647300795e-07  5.6532067900111501e-04  7.4365062982022798e-04  5.6681369661673792e-04  5.7103234931076864e-04  5.6672352580667521e-04  7.5857091404105982e-04  7.9515248055912520e-08  6.0797477833753521e-04  6.3720111105808580e-04  5.6515439788962251e-04  5.6509271669871448e-04  5.6472850691493875e-04  9.0742269761910415e-04  8.1071087486473249e-04  8.8709816816148431e-08  1.1425921937699708e-04  1.1291497858974708e-07  4.5190759368115717e-05  9.0866587408708073e-04  7.8754985004384447e-04  5.7007414087117177e-04  5.2714032721928221e-04  8.0517945465828343e-08  1.0057986728601997e-03  8.6546768951173338e-08  1.0262893532550015e-03  1.7255146381608098e-03  8.1128291359133268e-08  1.0647815018704626e-03  1.1829630584679559e-03  3.5833952336320569e-04  1.5820725179542304e-07  5.6243738981456067e-04  5.7933660886872417e-04  1.3607327703145282e-03  7.8220329449611942e-04  6.1036804817631300e-04  1.2351150812566966e-03  1.2327517277827664e-03  5.8125171443558358e-04  7.8231580099965419e-08  3.0875771810404801e-06  1.2345918058657296e-03  6.3402574693187982e-04  6.2170411151566600e-04  5.6477960517879960e-04  5.6297759406978521e-04  9.4608582194770981e-08  5.6230589509733168e-04  2.1325112859997411e-07  7.8686660078682312e-08  1.1372537676017608e-03  5.6533583215262852e-04  8.2873255935986417e-08  1.0156249781029035e-03  7.9994919929214155e-08  1.1344018018673687e-03  5.6437822846200413e-04  5.6486807174156847e-04  5.6513445152065692e-04  5.6420897195748928e-04  2.8765230779556