<?xml version="1.0"?>
<VTKFile type="UnstructuredGrid"  version="0.1"  >
<UnstructuredGrid>
<Piece  NumberOfPoints="6486" NumberOfCells="12696">
<Points>
<DataArray  type="Float64"  NumberOfComponents="3"  format="ascii">0 5 0  0 0 0  5 0 0  5 5 0  2.5 0 0  5 2.5 0  2.5 5 0  0 2.5 0  2.5 2.5 0  0 1.25 0  1.25 0 0  1.25 5 0  0 3.75 0  5 1.25 0  3.75 0 0  5 3.75 0  3.75 5 0  3.541666666666667 1.458333333333333 0  1.458333333333333 3.541666666666667 0  1.875 1.25 0  3.75 3.125 0  1.284722222222222 2.326388888888889 0  2.683189655172414 3.767959770114943 0  0.9375 0.9375 0  4.0625 4.0625 0  0.7252209595959597 3.026357323232324 0  2.763480392156863 0.9129901960784315 0  1.875 4.345238095238095 0  4.345238095238095 1.875 0  4.192708333333333 0.8072916666666664 0  0.8072916666666665 4.192708333333334 0  3.368055555555555 2.326388888888889 0  0.6837606837606839 1.738782051282051 0  3.285485245626782 4.324328415208927 0  2.551239698778062 1.693130150610969 0  1.827256944444444 2.868923611111111 0  3.464875022477093 0.6813924607921316 0  1.942880513719175 2.059558626187995 0  3.04563492063492 2.971230158730159 0  4.375 3.4375 0  2.13639445139758 0.5994472256987903 0  4.272228422619047 2.606956845238095 0  0.625 0 0  0 0.625 0  5 4.375 0  4.375 5 0  0.6400043240752655 2.384646170113389 0  1.347691225855598 1.660875475110776 0  3.515783617857982 3.723905460714006 0  3.125 0 0  1.875 0 0  0.625 5 0  4.375 0 0  5 1.875 0  0 1.875 0  0 3.125 0  1.875 5 0  5 0.625 0  0 4.375 0  3.125 5 0  5 3.125 0  1.489644181965304 0.6007147273217681 0  2.054597701149425 3.742302955665024 0  2.662520990197781 4.39452575763237 0  2.415835363784578 3.165530021913244 0  0.8679986894865213 3.602373689486522 0  1.267459753787878 2.886186079545454 0  4.099702380952381 1.365327380952381 0  1.316964285714286 4.438244047619047 0  3.7915135293491 1.959691594758709 0  2.875141124191255 2.118761176511833 0  3.00418010501169 1.397414179299248 0  0.4081721322167092 3.410647930198662 0  0.4166666666666666 0.9375 0  1.014190407998288 0.4422301359994293 0  1.383260571305984 1.162718286082048 0  4.53125 3.90625 0  4.453125 4.453125 0  3.772848162504192 4.48678272083473 0  2.8125 0.404329517041716 0  0.4538690476190476 0.4538690476190476 0  2.305461739347387 1.04517007574828 0  3.771263799175824 2.624190260297553 0  3.229617768018734 1.809956994202883 0  3.780190884441317 1.025307111692601 0  4.646337365591398 0.9375 0  4.537623451379149 0.4609485750426037 0  1.200477888421151 3.934852888421152 0  0.3536626344086022 4.0625 0  0.4623765486208503 4.539051424957397 0  4.0625 0.353662634408602 0  4.560525106689535 1.390989100915847 0  3.958439078571988 3.619844539285994 0  4.672619047619047 2.1875 0  2.1875 4.672619047619047 0  1.862808494877602 3.325947624431087 0  0.3268135998175443 2.8125 0  4.674181280189791 2.8125 0  2.283233994935276 4.138623547175983 0  0.9375 4.677879119362977 0  3.08488061581743 3.469889594488945 0  3.113427375573758 3.913955730709506 0  1.652847799068813 3.950848935641292 0  2.932652662909449 2.550542739521724 0  3.311350648514189 1.088831994878698 0  0.6770833333333333 1.295851139601139 0  0 1.5625 0  1.047214787840024 1.96818092308125 0  4.183331482095785 3.03958703580843 0  3.4375 5 0  1.071307777252521 3.246275861010018 0  0 2.1875 0  0.386576856303419 2.03125 0  1.713862716483534 2.439783116849799 0  1.775396256975935 1.665976816304977 0  2.231236976948428 1.443917394671254 0  2.373900732409897 2.086930260150635 0  4.114918237574474 2.221646174618671 0  3.661302567757379 4.099620139144836 0  3.378215938602977 2.734494874063393 0  0.9842097536079312 2.597286741306247 0  1.642795138888889 4.672619047619047 0  4.0625 5 0  2.099458800960004 2.567446522665629 0  2.616202751603346 1.297895893940078 0  5 4.6875 0  0.9937554350075428 1.512592975947215 0  2.8125 5 0  3.002695327068194 4.614055254615477 0  3.205627424097207 0.3852436382721472 0  1.678616581261621 0.927556612265266 0  3.365326698305438 3.196943731162083 0  1.554834936170314 3.120009882655813 0  3.108408340729323 0.7797187795784133 0  3.684368918102174 0.3728877601163941 0  2.716214835303553 3.39276351922003 0  2.37718583984784 3.551973401560441 0  0.3750662445374837 1.52191994866787 0  2.679073487930202 2.844160731602957 0  1.557635869750078 1.991068682985722 0  1.812595698561088 0.3839273018252746 0  2.512014721281916 0.6320641118792227 0  2.1875 0 0  2.349973454443689 0.3189980586887866 0  4.6875 3.59375 0  4.636052949022233 3.178355898044465 0  4.6875 5 0  3.345485909784306 4.665765449101383 0  0.536727472389443 3.749603193819277 0  4.349541499640203 1.116201826262156 0  2.886559045931982 1.774013674579691 0  0.6770833333333334 0.7142857142857143 0  1.5625 0 0  4.120842096538671 4.628726497527622 0  2.176157474177018 1.793470423744689 0  2.175650736889416 2.909863021769539 0  4.036616464259081 1.709699085170981 0  3.887974623473683 0.6492597046022868 0  3.4375 0 0  3.70675699592552 2.289666624772415 0  4.697265625 4.208984375 0  2.815177577303495 4.085937578239174 0  4.672619047619047 1.730733296184288 0  4.6875 0 0  5 0.3125 0  0.3125 5 0  0 4.6875 0  0.3276089296588581 2.484526834811734 0  0.712433309515852 2.065138854645612 0  0.6376435912223634 2.711473454001295 0  1.184991292170422 0.7222504400947201 0  1.31884329779317 0.3206944232264773 0  3.683609198994263 3.44428698533042 0  0.3125 0 0  0 0.3125 0  4.231797269642997 3.789141808928991 0  1.564375596050781 1.425998687184973 0  2.007640894175573 0.9032106925568466 0  0.955125897558294 2.276666098587227 0  1.43898735721003 2.611310720271951 0  1.954491523717513 4.040700257877075 0  1.752947649777421 3.652439445419346 0  2.509575750247638 4.678021307664052 0  4.687194709705067 2.499965519538002 0  1.5625 5 0  0.9375 5 0  5 2.8125 0  2.1875 5 0  5 1.5625 0  5 2.1875 0  4.0625 0 0  5 0.9375 0  2.8125 0 0  0.9375 0 0  0 0.9375 0  0 2.8125 0  0 3.4375 0  0 4.0625 0  5 3.4375 0  5 4.0625 0  4.010848109290813 3.306446973933037 0  0.3077461147713075 3.119700563473354 0  4.6796875 4.6796875 0  2.333079012424948 3.845757959077508 0  0.7829771267899832 3.317744656243421 0  1.159100632608513 3.532487125138763 0  0.799066251840424 3.893573750162776 0  1.57326499580282 4.255438189102632 0  0.7309366047093668 0.2991402264438908 0  0.3054777494262156 1.223275888123843 0  4.027475154280377 2.78211326942427 0  2.35270874745988 4.426658168476266 0  3.474236283732569 2.021154281686229 0  4.401414236174444 2.329446628171927 0  3.39403781747337 3.987097102903034 0  1.077524329801934 1.214100792470484 0  4.065611571711903 1.066085524514197 0  2.165399002716117 3.335637450367864 0  3.007639563081306 1.093684039371638 0  4.030818285732145 4.351883315180857 0  3.504115222530889 1.739284194222036 0  1.224503368215566 4.712091441401919 0  3.805634204685714 1.321528442399996 0  4.319233123479386 1.573547993867769 0  1.024007670021325 4.394604704797005 0  3.776400432023095 3.839003324979723 0  2.991819819453308 4.320567175146181 0  0.9782797534072181 2.886406017887129 0  1.763835134082104 0.6602345487826022 0  3.765182288741625 1.631193038541544 0  2.267959593989681 2.345053543725764 0  4.412434895833333 4.168294270833333 0  4.4072265625 4.7255859375 0  2.791493971314009 3.11210833271929 0  3.408766223032414 3.469500900677365 0  1.915147569444444 4.725484476461039 0  2.070301968506271 0.2605666686358055 0  2.767932250651506 1.530295992695836 0  3.280065043173439 1.364863281105779 0  4.45101570110842 2.974157152713635 0  3.521928862999512 2.96990445010402 0  2.552921961347576 4.008414007169315 0  0.2682955376854191 3.657555015841003 0  3.084522868361304 2.310593316718068 0  2.669255823227708 1.939379494498064 0  2.615884629473921 2.238841231570381 0  1.405652091971449 0.8877813821442277 0  3.25151486618811 3.68536115104276 0  1.963741569810629 2.331207252264507 0  4.017297980292599 2.486269171379106 0  3.869168920841219 4.748188103831625 0  3.596868753579134 4.77342723825056 0  2.41262958240343 2.764128584995838 0  1.266750578673391 1.404747710001619 0  1.559243962241121 2.85146506328516 0  3.128799423834764 2.052081657715259 0  0.6770833333333333 0.9778025793650794 0  0.2083333333333333 0.78125 0  1.978224492765132 3.087074731032578 0  4.051448850909273 1.969392119104174 0  1.320577095006813 4.172234780971559 0  3.214261103850064 2.534397293281829 0  0.2635729089754111 1.779234736680035 0  3.510775680035133 4.460728640112889 0  2.603081405968802 0.2432579385496493 0  2.866341315154884 0.6662105505481998 0  3.000919221100777 0.2270278495648781 0  1.298858304121393 2.05917319923859 0  2.020292299736597 1.589794568392338 0  0.7401688396476035 4.470780315741533 0  0.6721783535561408 4.733125588707921 0  3.753712482075402 2.874301339727514 0  3.557348205914658 2.491958694539413 0  1.094565978195436 0.2011034254079851 0  0.9338148378011396 0.6833568465908735 0  2.945530578578538 3.701798332963805 0  3.111707186654356 3.216904195825605 0  1.341791111822685 3.293123262233967 0  1.632939924064587 1.184895891095613 0  0.6335477978936732 3.517393619499591 0  0.5576014611130192 3.210998966942492 0  1.564344196470102 0.3630498725895039 0  2.75362450242839 4.626680495816594 0  3.571304405229554 1.192452351107437 0  3.522934592621944 0.9359134489437148 0  4.453125 3.671875 0  4.765625 3.828125 0  1.055906321410838 4.14310472322957 0  4.795146539102229 0.46875 0  4.767156345199235 0.7178596932040019 0  0.2048534608977711 4.53125 0  0.232843654800765 4.282140306795998 0  0.5393715189906129 4.270810883024032 0  4.329922600274667 0.2750645887059072 0  4.275515096738972 0.5448389557295173 0  4.477747423652795 0.7252838358993123 0  0.2002829820452772 0.46875 0  0.4352678571428572 0.6956845238095237 0  0.5007241582667088 0.2123388122114133 0  4.672890923830735 0.2500902110494848 0  0.4308009280819452 4.783624996516437 0  2.104871305393774 4.438653689007242 0  0.2274454167838428 0.2274454167838428 0  3.446466574593436 0.4359605369011901 0  2.12354112127588 1.217588426759619 0  2.309175236825235 0.7888355970690434 0  2.556178570281936 1.054299163237582 0  0.578683248637
[...]
<PointData  Scalars="f_10845-1"> 
<DataArray  type="Float64"  Name="f_10845-1"  format="ascii">3.3755549372573710e+03  5.6322936328350816e-02  9.4875547500066909e-03  8.6319911073081262e-03  2.8566088570013286e-02  9.3330139121938112e-03  4.2640296118550111e+02  2.4394086408863372e+08  2.8000532343811529e-02  -3.2634963711643860e+02  3.8256477147718855e-02  1.1873238361526858e+03  7.4293487608858221e+05  9.4282997748188976e-03  1.8920375928624607e-02  9.3001075001402662e-03  1.0021501129477488e-02  2.0342988883665120e-02  3.1633002816246360e+04  3.3358437658907232e-02  1.8786101600911636e-02  -1.2585318753172305e+00  2.5675022139666485e-02  4.0237644848212892e-02  1.5729575462737545e-02  4.3008591001381697e+06  2.6400588094268131e-02  1.1006597897291818e+04  1.4237354273264847e-02  1.5389201996089870e-02  7.9047303507848759e+04  2.1773445256195293e-02  -1.1975453225306303e+01  1.5204257746409582e-02  2.8094601839421023e-02  1.9144137036879290e-02  2.1019713507786628e-02  3.2003908168178226e-02  2.3862778025164653e-02  1.3989869791700122e-02  3.1325502394317160e-02  1.4751141436700631e-02  4.3587981467136723e-02  8.9766460876037388e-02  9.2833681358511309e-03  1.0029270038247480e-02  -3.1444814761061498e+04  3.6569575477158764e-02  1.9271003497014348e-02  2.3619042286177658e-02  3.3287826988652298e-02  2.1715855546970402e+03  1.4102789248434510e-02  9.3082152828496099e-03  -8.9828356415943825e+05  1.4739982299697606e+07  1.0094634115649976e+03  9.4765900002116224e-03  5.5768185741347545e+04  3.0876327712086331e+00  9.2634518976430855e-03  3.6346124586867548e-02  -4.9811736268077258e+00  3.3964169345982307e+00  2.4930988725701805e-02  1.0096613666569663e+06  -1.7629319488166308e+02  1.6110609427431026e-02  1.8006223733161012e+04  1.8464523145669466e-02  2.5582765141116633e-02  2.4580439180796335e-02  3.2210708068514974e+06  9.4421937458143042e-03  4.0127719429000695e-02  3.7019488317513088e-02  1.2801222405115555e-02  1.2698305118079281e-02  1.3888317767150188e-02  2.6088541576051841e-02  4.1485040357011248e-02  3.0032487974387893e-02  1.8666958593519765e-02  2.2859988031468596e-02  1.8589752698379078e-02  1.2017139709663307e-02  1.2863369775823355e-02  1.7877473301551596e+05  1.4996176437078646e+05  1.4171751215076420e+04  1.6472510999408132e-02  1.2551543381794856e-02  1.7043664855417237e-02  1.1741845592382984e-02  2.0612132508721497e+03  -6.1834486984686088e-01  4.3814790922788121e+07  1.1661479780127730e-02  8.2642844488785229e+01  6.3122323735729015e+03  2.1588195610828365e-02  1.8298777439923405e-02  3.4839833545493246e+04  2.5059662998540875e-02  2.2136971666294098e-02  4.8349398661041067e-03  -1.9369955101199259e+04  2.5801926590009852e+00  1.5497514379598256e-02  2.1826791480191881e-02  3.8387829404691630e+05  3.3716544777928484e+06  3.3519095425192572e+04  -6.4864122230623197e-02  3.3794994865472418e-02  3.0579661397243368e-02  2.9369547873834032e-02  1.5923119686141542e-02  1.6722090918673421e-02  2.1677830572368082e-02  -1.1584574833574491e+03  4.9362557515506041e+03  1.0125074297426956e-02  2.9726121887435227e-02  2.7635471473963870e-02  9.0922626271153096e-03  7.0144785862242917e-02  6.7200517875733382e+01  2.7094956060648014e-02  2.3033927103369604e-02  3.4879797197764621e-02  2.1531283443689656e-02  -2.5599834778528333e+01  2.3761010789549373e-02  1.9285822513202516e-02  2.2198928849137951e-02  7.5189792994491194e-03  3.3556368765273498e+02  2.6060502967920979e-02  2.3828190116727262e-02  3.3842675123541680e-02  2.8346242031875614e-02  3.0859096245793593e-02  2.9578479997296420e-02  1.1616779727774673e-02  1.1979544568358773e-02  9.6861062783219123e-03  8.6958321412174810e-03  6.0634587836434180e+05  1.4160962349576674e-02  2.5539874466228830e-02  4.5174444205589435e-02  3.5824698673543771e-02  1.2699988781126690e-02  3.0978964236961417e-02  2.5570071090405447e-02  1.6540545518710280e-02  1.7706678458411517e-02  2.1249139320580205e-02  1.9143304795353939e-02  1.1452534599520260e-02  1.4827498348016362e-02  1.1725586531090546e-02  1.1762446353414982e-02  9.5080136315868896e-03  2.9097598461029279e+03  1.2826869479034807e+04  1.2293992591221093e+06  -9.8110367244452405e+01  1.1641236082755504e+05  3.8765590273263290e-02  3.7685948431806247e-02  1.9109637895935186e-02  4.8763930982462435e-02  5.4545383017435160e-02  1.4986583560465739e-02  3.5484549922427368e-02  3.2327044580489843e-02  2.7937561143796648e+02  -8.4261051695515476e+00  3.1042563667791264e+03  8.5178510331485086e+02  3.0338701795459627e+02  1.1566256127605951e-02  1.2406833717066213e+03  1.4192137820828020e+03  9.2896599848743839e-03  7.8960643149736336e+02  9.3474683882143247e-03  9.3218203375436820e-03  1.6487351908932024e-02  9.4815585370529362e-03  2.6086798561210319e-02  4.0728129591029026e-02  1.7379170015919591e+01  6.3218692119976997e+07  3.3638354891462233e+06  1.5412074472856949e+05  9.2898252879943192e-03  9.2928082248071499e-03  1.6780401031141801e-02  1.2833525199599460e+07  1.0980562740221718e-02  -1.5114688909629663e+00  3.3120128670557118e+06  5.0306709241189191e+05  2.8968276353231882e+05  3.1836245193905041e+04  4.2677291284202598e-02  -1.2738894161361868e+01  1.6675639400602970e-02  4.0553517370020563e+02  2.0950868448877058e-02  1.3710180335562821e-02  1.7693957045949685e-02  3.9115489697192016e-02  1.6358550238474778e-02  -5.0667032659953336e-02  2.4503717691156501e-02  1.4613199502224648e-02  2.0675790340088422e-02  5.6012687463004258e+03  1.8383991370560855e-02  1.4423773142369395e-02  2.6970715719642343e+04  1.7790689854958710e-02  6.4391647877548965e-04  -1.7490143681348676e+04  3.4223891270112307e-02  1.8611905554370912e-02  2.9663258669651773e-02  1.3449166962171908e-02  1.1726574749734920e-02  2.4329898745485815e-02  2.0701041370842051e-02  3.1500923806321161e+03  3.1805959284174824e-02  2.6433696963082433e-02  2.2395917070459320e-02  1.3391256590475499e-02  2.0534704261162249e-02  -1.0159577760030497e-01  1.0524165370351165e+06  2.3962881741689049e-02  2.7182110572688552e-02  2.7546607855719444e-02  3.7017222901008055e-02  1.9946009478320058e-02  2.8074897634710806e-02  1.6730625198184409e-02  1.1957610835448886e-02  1.1565868266046806e-02  2.7068568615340242e-02  3.7300653181494420e-02  1.0803900741054393e+01  2.3637998920091267e-02  5.6983141412689585e-02  -2.6748585903408340e-01  9.3883183367961240e-02  1.6416646461255627e-02  5.8829513220713670e+04  2.2948629729508899e-02  1.3637421274792741e+04  1.4175644907717161e-02  2.7706614437601845e-02  2.5587087183538294e-02  2.4625346815380336e-02  -1.8118636919292264e-01  3.2207392517889927e-02  1.8296263535966038e+04  5.2102018431617871e+03  1.8767350662163444e-02  2.0322710719065724e-02  3.9455307347888761e-02  4.0551746062176527e-02  1.9928781434269266e-02  2.2897353793769382e-02  2.4071075187775978e+03  3.5236765750660912e-02  1.7480831998307849e+06  7.2237758126324601e+06  3.5783689728408029e-02  1.5434240865561627e+01  2.0168823268982942e-02  2.0602992247701561e-02  1.3382056935246760e-02  1.1033677188321109e-02  7.9849677654523417e+04  1.0929748971516889e-02  1.1165615334416984e-02  2.3725822856289589e+04  5.1637490632264111e+04  5.1850644673278279e+04  1.4441856092042247e-02  1.4837861901583751e-02  1.3294938699197505e-02  7.6431223803002060e-02  4.1580854147168632e-02  4.5092864420238903e-02  1.1868613073635315e-02  6.4473458094240204e+03  3.4154781217546297e+03  5.0221657521561491e-02  2.1132022119432475e-02  3.1416849283885336e-02  3.0001568891034010e-02  2.8097663603238097e-02  2.1432389202347898e+05  2.2298184423278900e-02  -4.0680885070775601e-02  3.7444722678154294e+05  1.7999695714692555e-02  1.1245741715759421e-02  1.1017599064494716e-02  1.0852806512228280e-02  3.8620055439683602e-02  1.1724183892948266e+05  3.9869400304660946e+05  2.4062130490022562e-02  1.4095866359722259e-02  2.3862383356922520e-02  1.9308120607512073e-02  -2.7995849800952061e-01  -2.0933588572611231e+02  -1.4394929643892537e+01  1.4274250269443740e-02  3.4597267751679671e-02  1.3388996618006702e-02  4.0267911428601950e+00  -1.5835093569644660e+05  1.1001704496622572e-02  -3.9234188692777144e+02  -1.2093534688730861e+01  1.5701204738855161e-02  1.6513632897669800e-02  1.7062074076280787e-02  8.8656428108666398e+02  1.4773775200684460e+07  1.0396415100231566e+08  1.0439017475775990e-02  1.2947876360706458e-02  3.7697172665747056e-02  2.2419894858809020e-02  2.2111548466698674e-02  1.5460573685712770e-02  2.0025624998968872e-02  1.0459570562916465e-02  1.6896975255238651e-02  2.5973974235728586e-02  3.3484424186439555e+03  1.7160001067491628e-02  5.6205772368045972e+00  3.9095266192101040e-02  -5.9983783957156844e-01  2.2192207257253085e-02  6.6428968056523157e+06  -1.4659701157754682e+07  1.0444460479107293e-02  1.0515306660146041e-02  1.5260955462241722e+02  6.8144536146890705e+03  9.8581257550356873e-03  1.7109269412700658e-02  1.4747562133126496e-02  2.6292598564240002e-02  1.1140036876981273e-02  2.4148322447506036e-02  1.6146257440145941e-02  2.1369114052850033e+04  2.8892516173699642e+03  2.6556037635207648e-02  2.9359435551574320e+07  4.2077551365809943e-02  1.3974402251539658e-02  2.2736720451847787e-02  3.1053611593043564e-02  2.9310443526926265e-02  6.1971136970599812e+00  3.5593756867745370e-03  3.4023656780312141e-02  3.5013277277851577e-02  3.2502090334248786e-02  1.7280957821564535e-02  -4.8931008946665139e-01  -2.4179099243026483e-01  2.5848735126607989e-02  1.2276659330103019e+01  3.0009087106416528e+03  1.2628364008003205e-02  -1.7276315412694130e+00  2.8364885081887566e-02  3.8477982811337325e-02  1.2687748812547543e+04  -5.8365393732779194e+02  3.4002260077554594e-02  1.4163565737113132e-02  2.5072102466641405e-02  2.2512146397869196e-02  1.2340993166899343e-02  1.2976095444140114e-02  7.4532313630353531e-01  2.4435301094190875e+05  1.7504910135665717e-02  1.4948471643208240e-02  2.5066511806400401e-02  1.5208663031864899e-02  6.2706183351172340e-02  -6.2204444061175136e+03  1.1590201914405534e-02  1.0534539271271416e-02  2.9405646428598862e-02  2.8702394603719615e-02  2.9752166412984685e-02  1.4003289845300734e-02  1.3203130596239972e+06  6.6903495995301462e+05  2.0028704692803035e-02  2.7276196583536121e-02  -9.9997846166782622e+00  1.2704701851200432e+03  2.8683651583414616e-02  1.9614366857240308e-02  1.8395715084610711e-02  3.8237482523125707e-03  -1.1013194103448475e+03  -1.1517161163141841e+03  3.1386814642655925e+05  2.0259639606330992e-02  1.8061395933134848e-02  1.6736176328981729e-02  3.7013205209716196e-02  2.5987287770648508e-02  2.2102432257497012e+03  8.1150587975242524e+03  1.6359417712114806e-02  2.8250385161984921e-02  8.9086111634767556e+04  2.6196312937124620e-02  1.5763418561751317e-02  3.6404785000960616e-02  1.2751540298408444e-02  2.6477652797212629e+06  3.1135078891467972e-02  1.9697432947093339e-02  1.0737312750561681e-02  3.3773384785776718e-02  2.1807281907869517e-02  2.6076003480590752e-02  3.2896455225070689e-02  1.2947263806059475e-02  1.9745918872671051e-02  2.8921305744843202e+05  7.9179382520122674e-02  1.1537466659336590e-02  1.3280937519679974e-02  9.0990593481329802e+02  3.2235042175771271e-02  -2.1551413734382768e-01  2.7850241679548519e-02  -3.0253303555197920e+01  2.1387935763110079e-02  2.3302572243713817e-02  -8.5274560191785009e+05  1.5316737579254029e-02  1.5749323495012291e-02  -4.5969539931607658e+04  7.1182675800815205e+03  -8.5762645370922872e+00  2.3387113194533866e-02  -4.2857106286913782e-01  1.7877666957372688e-02  3.5790932073060611e-02  3.4008910917510529e-02  2.9770907544188454e-02  2.7021910441255730e-02  2.7031009879071300e-02  2.4310238580228214e-02  -2.4743345735942224e-02  2.3490973427452665e-02  4.0899415483361991e-02  1.6829964027796689e+03  1.3184280282641054e-02  1.2828787282475895e-02  1.1608174035077715e+04  3.0341257734346922e+01  3.7970334103991821e-01  3.6088031506439702e-02  3.0971345788578578e-02  4.4253745366428232e-01  3.8945825897208277e+04  -2.1678165475872507e+02  2.5060749262775042e-02  1.5293240298980522e-02  2.4266878157732472e-02  9.3109533404511381e-03  1.1822567685310922e-02  1.8191586438631124e-02  1.4964538963454885e-02  4.9064848090391001e+05  1.4635454883244166e-02  1.7118095313776983e-02  2.2824072015467697e-02  2.8796602483005033e-02  4.2040133512973123e-02  9.4528209878115572e-03  1.0703307527060809e-02  1.7813701189427750e+03  3.3218285024574412e-02  8.1874218218790949e+05  1.3913785185911302e+06  1.9825509849403049e-02  1.1555650577026629e-02  3.2419500589152064e-02  -1.9750860681774096e-01  3.2526365266990737e-02  -1.5462940514455134e+01  1.7172276399495263e-02  1.6151407479938616e+06  1.8333634844202240e+05  2.8958793879030923e+03  2.9709556858928136e+03  3.0469596086985337e-02  3.5110257591629654e-02  2.7145945041072334e-02  1.2294900084678179e-02  1.7487751506348915e+04  2.5912683178187588e+04  2.0542353110433970e-02  1.9575136042365021e-02  1.8227825113215055e-02  1.5320301722995422e+05  1.4691937349459793e-02  1.5273484318317857e-02  2.8910854377546161e-02  9.4021374534541974e-03  1.5526140589980699e-02  1.5896863049099885e-02  1.7375762946357797e-02  1.0426408632436844e-02  1.2194454638262669e-02  1.0608493599627216e-02  9.4526951638074560e-03  8.3203174416122988e+02  1.5175044855063493e-02  -3.7754964853213387e+03  4.1941221373590326e+02  2.2335423160063726e-02  1.2972542756332936e-02  9.9398594128398757e-03  2.1630079149935151e-02  1.0351432546729558e-02  1.2467755282427988e-02  2.6857586036760396e-02  2.5811152114375364e-02  1.2261119250447136e-02  3.1396188189375232e+04  -5.9117728146277827e+01  3.3560716766246376e-02  1.7460601626073331e-02  4.0254712875158043e+03  1.3138888016612482e-02  4.3530164146973672e-02  5.2298464748152765e-02  3.9973869781252364e-02  -9.5177928663526457e-01  1.0604863447972223e-02  2.0443797687306555e-02  1.0078155763260755e+05  1.0571939100435189e-02  1.2076270417133250e+04  2.4362762658659057e-02  2.1414976988686704e-02  -3.7131177792475802e-02  1.0173603787541839e-02  2.3831902190816788e-02  1.3090926719885919e-02  1.0479732138346819e-02  -1.0375069232414334e+02  -1.2386722606772799e+04  2.2521078031449017e-02  1.2879607991224206e-02  1.0481990958281204e-02  1.4589984918128273e+03  1.8941925231728877e-02  3.8963985039581692e-02  2.3396198763902625e-02  9.2957924143256231e-03  2.7321877239151245e-02  -1.4536362721649311e+02  1.4183215347093226e+01  2.1010813102530303e-02  3.5045091493371234e+04  2.8088938678413247e-02  3.0975132773080696e-02  1.2949058638315959e-02  1.8731796665192077e-02  4.3351056832829589e-02  9.3324746585078798e+06  3.7376549024216790e-02  3.8181776874906280e-02  3.7206895768504160e-02  3.9471832245930635e-02  3.9602010115122092e-02  1.0510931019669706e-02  9.3197281158606347e-03  2.6120019237916556e-02  1.1299345696180418e-01  2.6842705942901762e-02  1.8760271603644283e+06  8.6438081001963957e-02  1.9716217077166382e-02  1.2053984745526476e-02  3.2092722840073432e-02  1.3816596132083100e-02  1.3113575343407019e-02  1.2429455109335278e-02  3.0600450791316295e-02  1.3714426360892283e-02  3.1011793323497391e-02  1.5852835155542790e-02  2.5179728757459927e-02  4.9726696265849696e+01  9.3365472575903493e+02  4.9575903343086161e-02  4.9323201462993467e-02  1.5295327392563854e-02  2.7304286202902407e-02  1.1698325319720279e-02  5.0753714533147046e-02  9.9674246878065358e+04  1.0463891674719929e-02  3.6555450370496512e-02  3.6123440923102865e-02  2.1628337082077429e-02  1.6051403535083393e-02  -1.8815553862522833e+01  3.1220300864929072e-02  1.0159768760831538e-02  4.3508565094433363e-02  1.3708383258413673e-02  1.6428258473128003e-02  3.2591011360316925e-02  1.4644227552736236e-02  5.4157081619654067e-02  3.4942876006338201e+06  1.9981987722834918e+04  4.4566842014455833e+04  -1.3171095982858720e+01  1.5849177210488258e-02  2.1195881711820106e-02  2.2927846480294323e-02  2.9688971565242989e-02  2.1401229027365774e-02  1.7500037780270941e-02  1.1605496130137795e-02  1.0382874339317534e-02  6.7542693543659174e+04  8.5055045174278215e+07  3.6557872918334574e+01  1.0387979068984922e-02  2.9717469669796954e-02  9.9162668028700916e-03  1.1305570048843203e+03  1.0138616960210721e-02  6.4584705578159928e+03  2.9625784564418182e+03  1.8557032530123726e+02  7.0464209368056571e+06  1.4401333010335236e+03  9.2742338845629279e-03  2.0094579213151085e-02  2.2428836346436491e-02  9.3337073579691926e-03  9.3048594841724681e-03  9.2724573314680262e-03  1.5625720214419714e+06  2.3960214697285584e+08  1.2760296214355130e+08  6.0399828679445443e+02  -2.3789812715602166e+03  3.4575678279359492e-02  1.7689090592384521e-02  3.3823029271421512e+05  2.4539807059117711e+03  4.6048163350632096e-02  2.6231969066870373e+04  9.5106666541277234e-03  3.9479765384719888e-02  2.4871722408005944e-02  -8.9519453866386517e-02  1.0176958572142988e+01  8.8710514340435784e-03  9.1967008443095462e-03  8.9526104301850661e-03  9.2785573068171322e-03  3.1299449488310758e+07  1.7979592193380586e+01  -9.5375398595893479e+00  9.2970153831243053e-03  9.3264102853673914e-03  9.4691764367216876e-03  1.8416764665505188e-02  5.6886640189211960e+01  -7.1461802314385384e-02  2.3672620909642201e+03  2.5007867968201845e-02  4.1598854472431975e+02  3.8097872688378387e-02  4.0853700062606857e-02  3.9278073775655606e-02  1.3007279165342420e-02  4.1373845922331620e-02  3.3428991484332163e-02  -3.4750438297459311e+01  1.5514212640675911e+05  -4.9023217742087366e-01  3.1197601512319238e-02  8.7865495324682815e+03  2.5121482643932406e+07  1.4945886656772759e+07  6.7519937439195346e+06  4.0961759052653335e+07  1.0758568471719390e+02  -1.6312783451323911e+00  1.2835362094659427e-02  1.9536630015778732e-02  3.4180492703942548e+02  1.4131203506587675e-02  3.5087843933488877e-02  1.0507166892724112e-02  1.4148520796193279e+07  5.0042500351809366e+02  3.0952121813127863e-02  -4.2058912484546390e+01  2.5176222796563431e-02  1.1911085124553205e+04  2.5355162109650643e-02  5.0436354773721846e-03  8.5317397987874667e-03  1.8143870631324614e-02  1.2312190562215978e-02  -5.2946245693116394e-02  1.4461804170360340e-02  1.3572155902916506e-02  2.6576966629247747e+00  2.1682028388145605e-02  3.4467636983018073e-02  2.0868874887058922e-02  3.7633055505113706e-02  1.2985434896572504e-02  2.1627059276086275e+05  7.8308433099249422e+04  1.6188682483229293e-02  1.7916049158145302e-02  1.7442971235092208e-02  1.5846132950764615e-02  1.6054823518796283e-02  3.0855587019019615e+04  5.8041332107542746e+07  4.2925476727055700e-01  8.7948501172068412e+05  2.7631982880652824e-02  5.5325565946367197e+05  4.1044986562492122e+05  5.5755696208337744e+00  2.4751642789212939e-02  1.9571652039169142e-02  1.8967793374026837e-02  8.9813575492239048e+04  -4.0867787673684690e+00  5.5597382722197538e+06  1.6926297265125178e+06  1.8874190272284513e+06  3.0127791240492020e-02  1.4341572844298387e-02  1.6752075820704335e+03  3.6316527352967177e+02  1.9727050897771274e+04  3.7810041664643824e+04  1.4687518688533000e+04  4.6763949724725768e-03  2.3251286179162656e-02  2.5289552908552060e-02  1.3103861695208533e-02  1.0761448726981914e-02  1.3986169783323770e-02  -1.3460742756844335e+00  -7.8205020042547389e+01  3.3556368146404368e+05  2.2795878363113316e-02  1.6878882822377862e-02  3.4706663891103100e-02  2.7202037648055434e-02  1.2703568833416211e-02  -2.7821353219307560e-01  1.8505931939364329e-02  1.5131259789695196e-02  1.4492641708373983e-02  1.0479702407723212e-02  1.5142311775078460e-02  3.9955398864967806e+03  2.5193215525294974e+04  2.3349907549489530e-02  2.6195285187500653e-02  -3.6350337639948143e+03  1.7837750069476570e-02  1.7218840158021363e-02  1.4389647731617617e+05  1.2185881099405329e-02  2.9426292456490720e-02  2.1567993397476698e-02  -1.3017615229720939e+03  9.9369313746626335e+02  1.0709847765501614e+04  2.5228375007387654e+03  1.7512885748233644e-02  2.8953670775445403e+03  1.7337374177483777e-02  1.2341332246740172e-02  1.2111006538721509e-02  5.6313788461010241e+04  2.3607562040748601e-02  1.1699688538372457e-02  1.5672452568075448e-02  1.8258344611831720e-02  1.0849021777070820e+04  2.2979765