<?xml version="1.0"?>
<VTKFile type="UnstructuredGrid"  version="0.1"  >
<UnstructuredGrid>
<Piece  NumberOfPoints="6486" NumberOfCells="12696">
<Points>
<DataArray  type="Float64"  NumberOfComponents="3"  format="ascii">0 5 0  0 0 0  5 0 0  5 5 0  2.5 0 0  5 2.5 0  2.5 5 0  0 2.5 0  2.5 2.5 0  0 1.25 0  1.25 0 0  1.25 5 0  0 3.75 0  5 1.25 0  3.75 0 0  5 3.75 0  3.75 5 0  3.541666666666667 1.458333333333333 0  1.458333333333333 3.541666666666667 0  1.875 1.25 0  3.75 3.125 0  1.284722222222222 2.326388888888889 0  2.683189655172414 3.767959770114943 0  0.9375 0.9375 0  4.0625 4.0625 0  0.7252209595959597 3.026357323232324 0  2.763480392156863 0.9129901960784315 0  1.875 4.345238095238095 0  4.345238095238095 1.875 0  4.192708333333333 0.8072916666666664 0  0.8072916666666665 4.192708333333334 0  3.368055555555555 2.326388888888889 0  0.6837606837606839 1.738782051282051 0  3.285485245626782 4.324328415208927 0  2.551239698778062 1.693130150610969 0  1.827256944444444 2.868923611111111 0  3.464875022477093 0.6813924607921316 0  1.942880513719175 2.059558626187995 0  3.04563492063492 2.971230158730159 0  4.375 3.4375 0  2.13639445139758 0.5994472256987903 0  4.272228422619047 2.606956845238095 0  0.625 0 0  0 0.625 0  5 4.375 0  4.375 5 0  0.6400043240752655 2.384646170113389 0  1.347691225855598 1.660875475110776 0  3.515783617857982 3.723905460714006 0  3.125 0 0  1.875 0 0  0.625 5 0  4.375 0 0  5 1.875 0  0 1.875 0  0 3.125 0  1.875 5 0  5 0.625 0  0 4.375 0  3.125 5 0  5 3.125 0  1.489644181965304 0.6007147273217681 0  2.054597701149425 3.742302955665024 0  2.662520990197781 4.39452575763237 0  2.415835363784578 3.165530021913244 0  0.8679986894865213 3.602373689486522 0  1.267459753787878 2.886186079545454 0  4.099702380952381 1.365327380952381 0  1.316964285714286 4.438244047619047 0  3.7915135293491 1.959691594758709 0  2.875141124191255 2.118761176511833 0  3.00418010501169 1.397414179299248 0  0.4081721322167092 3.410647930198662 0  0.4166666666666666 0.9375 0  1.014190407998288 0.4422301359994293 0  1.383260571305984 1.162718286082048 0  4.53125 3.90625 0  4.453125 4.453125 0  3.772848162504192 4.48678272083473 0  2.8125 0.404329517041716 0  0.4538690476190476 0.4538690476190476 0  2.305461739347387 1.04517007574828 0  3.771263799175824 2.624190260297553 0  3.229617768018734 1.809956994202883 0  3.780190884441317 1.025307111692601 0  4.646337365591398 0.9375 0  4.537623451379149 0.4609485750426037 0  1.200477888421151 3.934852888421152 0  0.3536626344086022 4.0625 0  0.4623765486208503 4.539051424957397 0  4.0625 0.353662634408602 0  4.560525106689535 1.390989100915847 0  3.958439078571988 3.619844539285994 0  4.672619047619047 2.1875 0  2.1875 4.672619047619047 0  1.862808494877602 3.325947624431087 0  0.3268135998175443 2.8125 0  4.674181280189791 2.8125 0  2.283233994935276 4.138623547175983 0  0.9375 4.677879119362977 0  3.08488061581743 3.469889594488945 0  3.113427375573758 3.913955730709506 0  1.652847799068813 3.950848935641292 0  2.932652662909449 2.550542739521724 0  3.311350648514189 1.088831994878698 0  0.6770833333333333 1.295851139601139 0  0 1.5625 0  1.047214787840024 1.96818092308125 0  4.183331482095785 3.03958703580843 0  3.4375 5 0  1.071307777252521 3.246275861010018 0  0 2.1875 0  0.386576856303419 2.03125 0  1.713862716483534 2.439783116849799 0  1.775396256975935 1.665976816304977 0  2.231236976948428 1.443917394671254 0  2.373900732409897 2.086930260150635 0  4.114918237574474 2.221646174618671 0  3.661302567757379 4.099620139144836 0  3.378215938602977 2.734494874063393 0  0.9842097536079312 2.597286741306247 0  1.642795138888889 4.672619047619047 0  4.0625 5 0  2.099458800960004 2.567446522665629 0  2.616202751603346 1.297895893940078 0  5 4.6875 0  0.9937554350075428 1.512592975947215 0  2.8125 5 0  3.002695327068194 4.614055254615477 0  3.205627424097207 0.3852436382721472 0  1.678616581261621 0.927556612265266 0  3.365326698305438 3.196943731162083 0  1.554834936170314 3.120009882655813 0  3.108408340729323 0.7797187795784133 0  3.684368918102174 0.3728877601163941 0  2.716214835303553 3.39276351922003 0  2.37718583984784 3.551973401560441 0  0.3750662445374837 1.52191994866787 0  2.679073487930202 2.844160731602957 0  1.557635869750078 1.991068682985722 0  1.812595698561088 0.3839273018252746 0  2.512014721281916 0.6320641118792227 0  2.1875 0 0  2.349973454443689 0.3189980586887866 0  4.6875 3.59375 0  4.636052949022233 3.178355898044465 0  4.6875 5 0  3.345485909784306 4.665765449101383 0  0.536727472389443 3.749603193819277 0  4.349541499640203 1.116201826262156 0  2.886559045931982 1.774013674579691 0  0.6770833333333334 0.7142857142857143 0  1.5625 0 0  4.120842096538671 4.628726497527622 0  2.176157474177018 1.793470423744689 0  2.175650736889416 2.909863021769539 0  4.036616464259081 1.709699085170981 0  3.887974623473683 0.6492597046022868 0  3.4375 0 0  3.70675699592552 2.289666624772415 0  4.697265625 4.208984375 0  2.815177577303495 4.085937578239174 0  4.672619047619047 1.730733296184288 0  4.6875 0 0  5 0.3125 0  0.3125 5 0  0 4.6875 0  0.3276089296588581 2.484526834811734 0  0.712433309515852 2.065138854645612 0  0.6376435912223634 2.711473454001295 0  1.184991292170422 0.7222504400947201 0  1.31884329779317 0.3206944232264773 0  3.683609198994263 3.44428698533042 0  0.3125 0 0  0 0.3125 0  4.231797269642997 3.789141808928991 0  1.564375596050781 1.425998687184973 0  2.007640894175573 0.9032106925568466 0  0.955125897558294 2.276666098587227 0  1.43898735721003 2.611310720271951 0  1.954491523717513 4.040700257877075 0  1.752947649777421 3.652439445419346 0  2.509575750247638 4.678021307664052 0  4.687194709705067 2.499965519538002 0  1.5625 5 0  0.9375 5 0  5 2.8125 0  2.1875 5 0  5 1.5625 0  5 2.1875 0  4.0625 0 0  5 0.9375 0  2.8125 0 0  0.9375 0 0  0 0.9375 0  0 2.8125 0  0 3.4375 0  0 4.0625 0  5 3.4375 0  5 4.0625 0  4.010848109290813 3.306446973933037 0  0.3077461147713075 3.119700563473354 0  4.6796875 4.6796875 0  2.333079012424948 3.845757959077508 0  0.7829771267899832 3.317744656243421 0  1.159100632608513 3.532487125138763 0  0.799066251840424 3.893573750162776 0  1.57326499580282 4.255438189102632 0  0.7309366047093668 0.2991402264438908 0  0.3054777494262156 1.223275888123843 0  4.027475154280377 2.78211326942427 0  2.35270874745988 4.426658168476266 0  3.474236283732569 2.021154281686229 0  4.401414236174444 2.329446628171927 0  3.39403781747337 3.987097102903034 0  1.077524329801934 1.214100792470484 0  4.065611571711903 1.066085524514197 0  2.165399002716117 3.335637450367864 0  3.007639563081306 1.093684039371638 0  4.030818285732145 4.351883315180857 0  3.504115222530889 1.739284194222036 0  1.224503368215566 4.712091441401919 0  3.805634204685714 1.321528442399996 0  4.319233123479386 1.573547993867769 0  1.024007670021325 4.394604704797005 0  3.776400432023095 3.839003324979723 0  2.991819819453308 4.320567175146181 0  0.9782797534072181 2.886406017887129 0  1.763835134082104 0.6602345487826022 0  3.765182288741625 1.631193038541544 0  2.267959593989681 2.345053543725764 0  4.412434895833333 4.168294270833333 0  4.4072265625 4.7255859375 0  2.791493971314009 3.11210833271929 0  3.408766223032414 3.469500900677365 0  1.915147569444444 4.725484476461039 0  2.070301968506271 0.2605666686358055 0  2.767932250651506 1.530295992695836 0  3.280065043173439 1.364863281105779 0  4.45101570110842 2.974157152713635 0  3.521928862999512 2.96990445010402 0  2.552921961347576 4.008414007169315 0  0.2682955376854191 3.657555015841003 0  3.084522868361304 2.310593316718068 0  2.669255823227708 1.939379494498064 0  2.615884629473921 2.238841231570381 0  1.405652091971449 0.8877813821442277 0  3.25151486618811 3.68536115104276 0  1.963741569810629 2.331207252264507 0  4.017297980292599 2.486269171379106 0  3.869168920841219 4.748188103831625 0  3.596868753579134 4.77342723825056 0  2.41262958240343 2.764128584995838 0  1.266750578673391 1.404747710001619 0  1.559243962241121 2.85146506328516 0  3.128799423834764 2.052081657715259 0  0.6770833333333333 0.9778025793650794 0  0.2083333333333333 0.78125 0  1.978224492765132 3.087074731032578 0  4.051448850909273 1.969392119104174 0  1.320577095006813 4.172234780971559 0  3.214261103850064 2.534397293281829 0  0.2635729089754111 1.779234736680035 0  3.510775680035133 4.460728640112889 0  2.603081405968802 0.2432579385496493 0  2.866341315154884 0.6662105505481998 0  3.000919221100777 0.2270278495648781 0  1.298858304121393 2.05917319923859 0  2.020292299736597 1.589794568392338 0  0.7401688396476035 4.470780315741533 0  0.6721783535561408 4.733125588707921 0  3.753712482075402 2.874301339727514 0  3.557348205914658 2.491958694539413 0  1.094565978195436 0.2011034254079851 0  0.9338148378011396 0.6833568465908735 0  2.945530578578538 3.701798332963805 0  3.111707186654356 3.216904195825605 0  1.341791111822685 3.293123262233967 0  1.632939924064587 1.184895891095613 0  0.6335477978936732 3.517393619499591 0  0.5576014611130192 3.210998966942492 0  1.564344196470102 0.3630498725895039 0  2.75362450242839 4.626680495816594 0  3.571304405229554 1.192452351107437 0  3.522934592621944 0.9359134489437148 0  4.453125 3.671875 0  4.765625 3.828125 0  1.055906321410838 4.14310472322957 0  4.795146539102229 0.46875 0  4.767156345199235 0.7178596932040019 0  0.2048534608977711 4.53125 0  0.232843654800765 4.282140306795998 0  0.5393715189906129 4.270810883024032 0  4.329922600274667 0.2750645887059072 0  4.275515096738972 0.5448389557295173 0  4.477747423652795 0.7252838358993123 0  0.2002829820452772 0.46875 0  0.4352678571428572 0.6956845238095237 0  0.5007241582667088 0.2123388122114133 0  4.672890923830735 0.2500902110494848 0  0.4308009280819452 4.783624996516437 0  2.104871305393774 4.438653689007242 0  0.2274454167838428 0.2274454167838428 0  3.446466574593436 0.4359605369011901 0  2.12354112127588 1.217588426759619 0  2.309175236825235 0.7888355970690434 0  2.556178570281936 1.054299163237582 0  0.578683248637
[...]
<PointData  Scalars="f_800-1"> 
<DataArray  type="Float64"  Name="f_800-1"  format="ascii">4.9066102153584361e-02  6.8318368845479913e-02  4.8338166580834112e-02  4.8126507253501927e-02  5.8390131535104216e-02  4.8318313206752686e-02  4.8752208854766964e-02  5.8758883195389709e-02  5.8381366615823264e-02  6.3784016241956176e-02  6.3446538913494124e-02  4.8637332464877191e-02  5.3678503922019491e-02  4.8318855738950624e-02  5.3345956861371793e-02  4.8348284323637032e-02  4.8694667297948926e-02  5.4166191655138259e-02  5.4551545451881789e-02  6.0924922734029621e-02  5.3361973461972037e-02  5.9429956875334915e-02  5.3627973528058356e-02  6.4800443623441131e-02  5.1932246430663041e-02  5.6628038301056088e-02  5.7308000436350912e-02  5.1370134174290101e-02  5.0940637011546476e-02  5.1528174041630487e-02  5.2056797075510051e-02  5.4910633214783122e-02  6.1802379918147014e-02  5.1401451740418665e-02  5.8195320881351813e-02  5.7244347307972121e-02  5.4466879390743267e-02  6.0611312309941413e-02  5.6173658711303427e-02  5.0853500365802537e-02  5.9855382981413664e-02  5.1239202392174457e-02  6.5971533567599452e-02  6.6296213792093994e-02  4.8368077705320971e-02  4.8812764631493678e-02  5.9224413216036900e-02  6.2540569408751634e-02  5.3826128298730784e-02  5.5824847092598828e-02  6.0895855326633594e-02  4.8945679255684570e-02  5.0821553557086167e-02  4.8292199892313113e-02  6.1265689316821137e-02  5.6217552398038079e-02  4.8724122457062403e-02  4.8328254864186050e-02  5.1500529619448392e-02  4.8725146592277072e-02  4.8322605041710077e-02  6.2476648619742899e-02  5.3759560134690791e-02  5.1118657533959763e-02  5.6123850238421369e-02  5.4295911488559778e-02  5.7217392019388032e-02  5.1909840361567573e-02  5.0958919813265509e-02  5.3181782610873675e-02  5.6890337789578270e-02  5.6353501434859489e-02  5.5067973011146784e-02  6.5039257620042965e-02  6.4400963245619558e-02  6.2868527488788226e-02  5.0233968633553963e-02  5.0327480412238272e-02  5.0823276186926579e-02  5.7118171665551096e-02  6.6482522878529862e-02  5.9193880791139575e-02  5.3291365974522290e-02  5.5460880255313247e-02  5.3201416375899209e-02  4.9719206859395168e-02  5.0168644261897252e-02  5.2955854306762973e-02  5.2416053105262130e-02  5.0499838588324651e-02  5.2071380568748986e-02  5.0038757972724383e-02  5.2509489761386106e-02  4.9616288204341018e-02  5.0047751149555286e-02  5.5420210740171463e-02  5.7494126059146944e-02  4.9610016482916144e-02  5.2159069437689033e-02  4.9942590708759366e-02  5.5023550506910449e-02  5.3107425613000844e-02  5.2908790516182858e-02  5.6650457194763595e-02  5.5091634810537145e-02  6.3595873659208366e-02  6.2526339868014896e-02  6.0873718719152245e-02  5.1635571150010509e-02  4.8711340889986569e-02  5.5735317549017872e-02  6.0007186077436644e-02  6.0687900098383096e-02  5.9012225502812876e-02  6.1348178437215024e-02  5.9485665438426802e-02  5.8911634190960398e-02  5.1859608619303499e-02  5.2448190327282221e-02  5.4863130482896323e-02  5.8354349750343718e-02  4.9978766064314839e-02  4.8718729446045217e-02  5.8715597650223245e-02  5.7946000843618645e-02  4.8322945898971813e-02  6.2848949292264519e-02  4.8743529583661238e-02  5.0257698134180594e-02  5.5510965796091549e-02  6.1716800633494544e-02  5.4910312694927778e-02  5.6264271754838446e-02  5.5919812927812763e-02  5.3569191938060548e-02  5.5246643730020910e-02  5.4496540612441545e-02  6.2678454150766741e-02  5.7403986973316903e-02  6.1125614623362377e-02  6.1162677100373028e-02  5.8320875429988532e-02  5.9630924996323241e-02  5.8966615753964856e-02  4.9590234305246055e-02  4.9777731578462402e-02  4.8710209601477927e-02  5.0004191524293452e-02  5.3675459465481960e-02  5.0890149399991202e-02  5.6863904498724825e-02  6.5921175198320497e-02  6.2176600448729046e-02  5.0292185303686086e-02  5.9702282973698603e-02  5.7150705761413928e-02  5.2166295975652206e-02  5.2748384636512866e-02  5.4582337924238174e-02  5.3531429655614783e-02  4.9542611530074034e-02  5.2366294234423086e-02  4.9594890034005606e-02  4.9564138248746004e-02  4.8337698304597672e-02  4.9108171552202720e-02  5.0236168163542691e-02  5.8808650724989919e-02  6.0495602918201975e-02  5.7892947265781439e-02  6.3711496273818349e-02  6.3166984430475151e-02  5.3618218605535027e-02  6.7235535122875376e-02  6.7520467150604765e-02  5.1410228339336346e-02  6.2171617098972225e-02  6.0389592877387960e-02  5.9638412120466326e-02  5.8296463023682521e-02  5.2566139710713493e-02  5.4112090033788821e-02  5.0006546014436923e-02  4.9554484728584418e-02  4.8760529195377690e-02  4.8711299398018583e-02  4.8327249152141885e-02  4.8719241701442213e-02  4.8297977359485482e-02  4.8301188893636084e-02  5.2082164728745668e-02  4.8340174526687305e-02  5.7097297056170268e-02  6.4704932340959156e-02  6.5035342913841929e-02  5.7480018951309254e-02  5.4947282214286602e-02  5.2318802870631967e-02  4.8335200346343372e-02  4.8355323498300962e-02  5.2313172918007710e-02  5.6240606206580675e-02  4.9402052597181022e-02  5.3337294826335660e-02  5.5453510984867151e-02  5.4593883635301363e-02  5.3136986256365974e-02  5.1699174580670859e-02  6.5543622286869732e-02  6.3881333123999240e-02  5.2251137448705000e-02  5.1044197554199700e-02  5.4469932754206446e-02  5.0698553772844532e-02  5.2884309639673145e-02  6.4301593399117479e-02  5.2039807305675374e-02  5.5367864479056096e-02  5.6327222129644708e-02  5.1359238109711915e-02  5.4330666600619248e-02  4.9912480012680796e-02  5.3107262564638852e-02  5.1025085537490522e-02  5.1210225607167661e-02  5.3032667986146691e-02  5.1399176462685291e-02  5.7195469935528806e-02  6.1373634427040941e-02  5.3263334637317236e-02  5.9287821782496225e-02  5.0657934273544876e-02  4.9816320231831045e-02  5.6483507942835784e-02  5.4561694098910832e-02  4.9790616021302289e-02  6.0112429011202562e-02  5.7325887107736173e-02  5.5230001901835094e-02  5.0524324123476357e-02  5.4276358203852196e-02  5.2667783898714925e-02  5.4058709458462251e-02  5.6048894168801745e-02  5.7719961559088324e-02  5.7935472548194478e-02  6.2818216002233057e-02  5.4144115223127391e-02  5.9738495122668753e-02  5.2273587702450233e-02  4.9719896534391295e-02  4.9581892724178317e-02  5.7942285136821335e-02  6.3473628935890702e-02  5.7327796117691676e-02  5.5877253779680246e-02  6.5519255122800074e-02  6.5654221864880569e-02  5.6367922455588727e-02  5.2117649181705396e-02  5.2012077524167408e-02  5.5522639801574097e-02  6.1647915221865329e-02  5.0860131999648214e-02  5.7965218386736329e-02  5.6886847406074290e-02  5.6339540639238350e-02  6.0513506497086068e-02  6.0328107519591168e-02  5.0771744957521209e-02  4.9725024344892711e-02  5.3350673276571392e-02  5.4154629560675169e-02  6.4072903797353586e-02  6.4681495297803024e-02  5.3970268470996702e-02  5.5726692693120694e-02  5.5559238982842075e-02  6.1893950593731296e-02  5.4650682532277360e-02  5.5880508152411398e-02  6.2179511520616730e-02  5.0196123845621936e-02  5.4047867925276424e-02  5.4252466243836499e-02  5.0535113415135779e-02  4.9283553347924045e-02  5.2137380566240961e-02  4.9121203121872334e-02  4.9254170378818282e-02  5.0808263562803851e-02  5.1511306330063206e-02  5.1581534678268523e-02  5.1006299154475541e-02  5.1213350196486408e-02  5.0399931882042101e-02  6.8257590723073649e-02  6.6983544247403284e-02  6.6470838658013398e-02  4.9624291720745332e-02  4.9786465800835629e-02  5.0980390709643476e-02  6.7263772050088586e-02  5.4527091312659204e-02  5.9920268686082447e-02  5.9167864149348527e-02  5.8179462844408322e-02  5.2818535166261477e-02  5.5239064277864673e-02  5.9764370144636342e-02  5.3138221244420587e-02  5.2871498098763986e-02  4.9319724301009907e-02  4.9213524255112981e-02  4.9259325952218956e-02  6.3693153949979195e-02  5.3552424907562429e-02  5.3541510069323145e-02  5.6084734779097679e-02  5.0900039194343237e-02  5.6041913751428099e-02  5.3577188665179097e-02  6.1749433647545489e-02  5.5316045517797847e-02  5.4580152445952906e-02  5.0947283857556411e-02  6.1543375595585384e-02  5.0508360430307465e-02  5.1741178370715235e-02  5.9678744071258762e-02  4.9208933321603379e-02  6.3155239720245754e-02  5.8538942459433446e-02  5.1754209635438385e-02  5.2292488220507555e-02  5.2410280764899633e-02  4.9387630448863386e-02  5.7096289228090971e-02  5.8126670381765264e-02  4.8952920900463881e-02  5.0294527984623166e-02  6.0527095442852029e-02  5.5199634599430898e-02  5.5074654894146223e-02  5.1780994260578583e-02  5.3947255432089058e-02  4.8962665297101575e-02  5.2265113421049739e-02  5.7099695943262925e-02  4.9570790909859441e-02  5.8235550956367933e-02  6.2691358955971402e-02  6.4807343332069500e-02  6.4222583770585678e-02  5.5091839689476833e-02  5.5588898571833717e-02  5.9375884403844899e-02  4.8951668462103422e-02  4.8955843725607323e-02  4.9337668506278291e-02  4.9804251817511219e-02  4.8794269426542178e-02  5.2487209356210561e-02  5.1238013561476947e-02  5.7242383514496988e-02  4.9407306036767983e-02  5.6100308982256528e-02  5.1994156265431399e-02  5.2186927465687788e-02  5.3301627793532452e-02  5.7571575842490431e-02  5.6898837183487205e-02  6.5304385712124144e-02  5.1017565191223531e-02  5.5625416469817918e-02  5.9904904872261105e-02  5.8823448475218525e-02  4.9348863481048742e-02  6.1424048787899622e-02  6.1285955510730537e-02  6.2258452722913263e-02  6.0657832003993231e-02  5.2538345092024451e-02  5.8101842425393922e-02  5.4516242282603981e-02  5.6226182014329225e-02  5.2967496259566149e-02  5.1799097228663570e-02  5.0079815409704846e-02  5.6428750101609200e-02  5.8318218576659503e-02  6.3575528799705489e-02  5.0895562905555053e-02  6.1448132824066803e-02  6.1436636443512466e-02  5.1001291994896475e-02  5.6811741696934301e-02  5.5243844217940430e-02  4.9974838171568232e-02  5.7725018692271597e-02  6.4697588509816689e-02  6.0865162728089499e-02  5.2681631758087030e-02  5.1344374311628950e-02  5.6788490604556950e-02  5.1482934724135988e-02  4.9689970741496350e-02  5.6333631834126791e-02  6.2183612552573431e-02  4.8913442230160011e-02  5.8873373523510519e-02  5.8510576995894570e-02  5.9054408698636984e-02  5.0792781647450325e-02  5.5002365052734543e-02  5.6357055247771203e-02  5.4007178010449831e-02  6.3773036894436877e-02  6.0002290030216482e-02  4.8662534793165992e-02  5.8788540819593810e-02  5.3168966717779584e-02  5.3293934036786152e-02  5.0827775071677142e-02  5.7833902176173180e-02  5.8967039595677881e-02  5.3817517414787040e-02  5.4223990139620731e-02  5.3182082878660664e-02  5.2487891805990797e-02  6.2803861427128016e-02  5.7003443397333396e-02  4.9344494720749678e-02  5.0341929640088399e-02  5.2025690403715248e-02  5.8277693093165439e-02  5.2699180721416321e-02  5.7158282621490565e-02  5.2206616612552284e-02  6.2502028622549083e-02  5.0139688542979885e-02  5.4832743312356449e-02  5.9925989138807929e-02  5.3781741466887259e-02  4.9284971760098745e-02  6.1722834733975371e-02  5.5153597218478081e-02  5.7132307597099675e-02  6.0674148890316866e-02  5.0194081076124553e-02  5.5293238127859350e-02  6.0048673449847226e-02  5.0799481124354527e-02  4.9560548419517951e-02  5.0422432100306641e-02  4.8713207960799400e-02  6.0341802453440889e-02  6.2805838497982089e-02  5.8059357263487335e-02  6.2384611939098694e-02  5.4762093880777130e-02  5.5705223967126224e-02  5.8553129841524609e-02  5.1457471256834794e-02  5.1696262764345323e-02  5.7783477324630475e-02  5.0561094140824242e-02  6.1024822884787597e-02  5.5745375425166145e-02  6.3419846045917327e-02  5.2821733108104840e-02  6.2189419978914792e-02  6.1264232880551404e-02  5.9056105754888018e-02  5.7636113701122593e-02  5.7643128082932288e-02  5.4436561124344460e-02  5.3756566830279073e-02  5.5898546451066095e-02  6.4780675243136215e-02  4.8801757648565890e-02  5.0494980766375458e-02  5.0414076475720923e-02  5.0487237643781303e-02  5.9172974184599020e-02  4.8724602024208780e-02  6.2335945498647599e-02  5.9676537633600292e-02  5.9046936005901565e-02  5.1568965356094842e-02  5.6688681121047149e-02  5.6619773396727587e-02  5.1538881954601337e-02  5.6200741350738222e-02  4.8289213946348754e-02  4.9693337019066336e-02  5.3037762655591160e-02  5.1404086518962146e-02  5.3439363701355477e-02  5.1333756200783863e-02  5.2435471754855661e-02  5.5456573684327506e-02  5.8687691679747800e-02  6.5338945083438585e-02  4.8326857206013638e-02  4.9008536488182083e-02  4.9401440211843499e-02  6.0835392207376680e-02  5.4006811649352844e-02  5.4366939456778271e-02  5.3888076434135262e-02  4.9566440053950160e-02  6.0433307251997574e-02  5.1865490981097793e-02  6.0496373941982609e-02  6.0351297079523566e-02  5.2505722611406201e-02  5.4310900608098255e-02  5.2816214276696312e-02  4.9287152436076419e-02  4.9330299654331125e-02  5.9429637656044088e-02  6.1830945624312954e-02  5.7786621380550254e-02  4.9899969429349322e-02  5.1026679607004431e-02  5.3618384274857128e-02  5.4262749974233325e-02  5.3756619070539455e-02  5.3085331851148172e-02  5.2414043666616630e-02  5.1225495102668328e-02  5.1471479089105640e-02  5.8605512726061321e-02  4.8316629708784975e-02  5.1634741612120019e-02  5.1803315830944045e-02  5.2619570872929150e-02  4.8953211357600862e-02  4.9906345281019462e-02  4.9047085987370891e-02  4.8317437663637372e-02  5.1515709848519921e-02  5.1423667589029123e-02  5.9951466194473710e-02  5.9825352371187197e-02  5.5194883982858212e-02  5.0688424380663274e-02  4.9372703269529097e-02  5.4839739686464731e-02  4.8942301568397184e-02  5.0140467252561244e-02  5.7553382667130483e-02  5.7010336844561520e-02  4.9847692638391200e-02  5.1140774260333269e-02  5.4810796230525406e-02  6.1031172214242702e-02  5.2695413698164356e-02  5.0354061455419423e-02  5.0308442657732856e-02  6.6249677243548591e-02  6.6290224725391117e-02  6.5238985900763893e-02  5.3872303659261288e-02  4.8937295248573001e-02  5.4259941466080208e-02  6.1893871900787545e-02  4.8957574998049369e-02  5.0281372121434659e-02  5.6205149340418877e-02  5.4722838107055576e-02  5.1671426225833983e-02  4.8921394962731846e-02  5.6230762748424451e-02  5.0312148192494535e-02  4.8996213565855810e-02  6.2150774233147341e-02  5.6663416043918946e-02  5.5155956183600051e-02  5.0259818748437005e-02  4.8927797510045501e-02  5.4569241960979141e-02  5.3611115486030210e-02  6.3825613557120991e-02  5.5741495259942757e-02  4.8350261681890598e-02  5.8063335837804333e-02  6.0808140066241773e-02  5.7863119117040528e-02  5.4743699727431372e-02  5.8550908329879872e-02  5.8194116741210264e-02  5.9682635939174514e-02  5.0291099107066431e-02  5.3326402873765978e-02  6.5941659989259840e-02  5.7898878182570952e-02  6.3004818764601192e-02  6.3417458640394747e-02  6.2921468409972925e-02  6.4122937374491165e-02  6.4151976057896729e-02  4.8945494869874415e-02  4.8297562356501976e-02  5.7420240499778549e-02  5.7016351895097579e-02  5.7542600545755961e-02  5.7266466041343785e-02  6.6762263259442262e-02  5.4030889631229116e-02  4.9807759874802314e-02  6.0266223275758313e-02  5.0775735710906898e-02  5.0322479643948675e-02  5.0067353655410540e-02  5.2970443342827495e-02  5.0883261579244179e-02  5.9704560836872048e-02  5.1859410310215355e-02  5.6667368572842242e-02  5.0522492666764458e-02  5.0020925323198392e-02  6.7829851016362269e-02  6.7570253140330425e-02  5.1631817204556639e-02  5.7734355810465911e-02  4.9771014166340027e-02  6.7006727584937573e-02  5.1954977470749113e-02  4.8876351415349857e-02  6.2767499966888379e-02  6.2899722051014142e-02  5.4821927033707869e-02  5.1934732505684360e-02  5.5798751292567762e-02  5.9805089823880990e-02  4.8702425495568760e-02  6.5861379356387723e-02  5.0610020734064537e-02  5.2077038543524343e-02  6.0506506373497679e-02  5.1189148458159549e-02  6.4407052839243500e-02  5.5229211228195213e-02  5.1528966830329814e-02  5.2345881373702434e-02  5.3912324926730960e-02  5.2021983554330159e-02  5.4565801373035877e-02  5.5670278785289240e-02  5.8970346204252504e-02  5.4267388303982478e-02  5.2688682646920754e-02  4.9581663842992008e-02  4.8905477844811397e-02  5.1786116032130597e-02  5.8752097848259452e-02  4.9343061132997149e-02  4.8925530164814234e-02  5.9010206115971464e-02  4.8805111879158335e-02  4.8756447469287804e-02  4.8794412845074395e-02  4.9607612626895607e-02  4.9017238097759097e-02  4.8794017193785240e-02  5.5579499594696345e-02  4.8823705463716609e-02  4.8328819656251756e-02  5.3966048199602712e-02  5.5203984457600962e-02  4.8310773080880880e-02  4.8323639178617282e-02  4.8325002872653622e-02  6.0637958298781415e-02  5.9382661559281957e-02  5.8122754251033422e-02  4.8728759397166199e-02  6.3158921488089645e-02  6.1544016783039765e-02  5.2710137533439227e-02  5.3031886010375125e-02  4.9038809271529066e-02  6.6601624558495484e-02  5.0890195229392386e-02  4.8338579141784216e-02  6.4075282891107116e-02  5.6464653255987762e-02  6.6868685547687906e-02  6.5661123452218598e-02  4.8690843193942027e-02  4.8345593940305347e-02  4.8281874231793649e-02  4.8495199572274238e-02  5.6851560812823013e-02  4.8729882684453558e-02  6.4414105255147985e-02  4.8345229281979582e-02  4.8378493467546080e-02  4.8330917406545458e-02  5.3145206806030229e-02  5.1120732884838024e-02  5.5702955281240078e-02  4.9347923738835696e-02  5.6578416722997342e-02  4.9477080392324825e-02  6.3552039111210171e-02  6.3802560632761088e-02  6.4709875889589388e-02  5.0332968439511148e-02  6.5023155430104257e-02  6.1795693986623004e-02  6.4080289994700057e-02  5.2574166868622388e-02  5.8636494745456375e-02  5.9803879435636344e-02  5.1974523969143156e-02  5.6867621933844544e-02  5.6280297712018638e-02  5.5714397979361417e-02  5.8119418191203760e-02  6.3271871239712493e-02  6.4433471862510208e-02  5.0222249146654768e-02  5.3816427502810980e-02  5.3174635867961575e-02  5.0918939733259623e-02  6.2961246824073960e-02  4.8990691631872654e-02  5.6460310682117862e-02  5.2337045587270696e-02  5.9644089905365932e-02  6.1153083024278423e-02  5.6936824758714817e-02  5.2768194381810463e-02  5.6769794408688852e-02  6.0336519812226798e-02  5.9810368062675902e-02  5.2972690544085828e-02  4.9915804151552910e-02  6.1490723510677532e-02  5.1050127641633261e-02  5.0576870962548141e-02  5.6975509271285266e-02  5.4857251261152866e-02  6.1496990507907516e-02  5.4443477180651553e-02  6.3138056654513761e-02  5.0316302297478910e-02  5.5252049560433912e-02  5.4907889874104852e-02  5.1654876560061139e-02  5.2902574128664892e-02  5.2649763913132835e-02  5.1818947834969271e-02  5.1922070824982333e-02  5.1474450099476571e-02  5.7512555600160789e-02  5.2302526270931057e-02  5.4414616769308720e-02  5.7952737937199329e-02  5.3729107810876781e-02  5.3386635453422170e-02  4.9853557025915020e-02  5.6460651740053769e-02  5.3746126662276877e-02  5.3405768437099266e-02  5.2095391404790151e-02  5.2774523931206657e-02  5.6008350166444711e-02  5.5748484117338806e-02  5.4887233096115651e-02  5.9287576600895980e-02  5.0963103341584853e-02  5.0624608390348234e-02  5.0523828731308194e-02  5.0993177438876693e-02  5.1386682421013984e-02  5.0629529270300608e-02  5.0260709124436656e-02  5.5749292318092190e-02  5.6705292433737856e-02  5.0376182138825734e-02  4.9077459892129811e-02  5.0837256094891849e-02  5.4947194143719423e-02  5.7256514288950851e-02  5.9095994727608757e-02  5.5447551954420284e-02  5.2281788068584328e-02  6.1779118032376734e-02  5.7716527188942740e-02  5.0021801493617880e-02  6.2317169889034456e-02  5.3165084863009700e-02  5.1637299957958724e-02  5.1245957556934570e-02  4.8991056688489493e-02  5.1402484223372520e-02  4.9446003209956450e-02  5.7192971126111318e-02  5.5910015942995751e-02  5.7266270827151425e-02  5.8377649961929311e-02  5.2892544508551478e-02  5.2676784443364696e-02  5.4056197820754506e-02  4.9810801750001223e-02  5.8871310251364578e-02  5.5795642049177072e-02  5.7229372717564647e-02  5.7794311866853312e-02  5.0500728885435463e-02  4.9236950714705019e-02  5.2642359861275946e-02  4.9245344691649241e-02  5.2556001071912731e-02  4.9875462223785180e-02  4.9992914757111942e-02  5.1816866035182915e-02  5.5808760495172000e-02  4.9806918510196356e-02  5.1651747656262736e-02  5.2811468704390407e-02  5.0317589928484251e-02  5.0936191937677733e-02  5.1436012139528343e-02  5.0143135090050361e-02  5.82100934289