<?xml version="1.0"?>
<VTKFile type="UnstructuredGrid"  version="0.1"  >
<UnstructuredGrid>
<Piece  NumberOfPoints="6486" NumberOfCells="12696">
<Points>
<DataArray  type="Float64"  NumberOfComponents="3"  format="ascii">0 5 0  0 0 0  5 0 0  5 5 0  2.5 0 0  5 2.5 0  2.5 5 0  0 2.5 0  2.5 2.5 0  0 1.25 0  1.25 0 0  1.25 5 0  0 3.75 0  5 1.25 0  3.75 0 0  5 3.75 0  3.75 5 0  3.541666666666667 1.458333333333333 0  1.458333333333333 3.541666666666667 0  1.875 1.25 0  3.75 3.125 0  1.284722222222222 2.326388888888889 0  2.683189655172414 3.767959770114943 0  0.9375 0.9375 0  4.0625 4.0625 0  0.7252209595959597 3.026357323232324 0  2.763480392156863 0.9129901960784315 0  1.875 4.345238095238095 0  4.345238095238095 1.875 0  4.192708333333333 0.8072916666666664 0  0.8072916666666665 4.192708333333334 0  3.368055555555555 2.326388888888889 0  0.6837606837606839 1.738782051282051 0  3.285485245626782 4.324328415208927 0  2.551239698778062 1.693130150610969 0  1.827256944444444 2.868923611111111 0  3.464875022477093 0.6813924607921316 0  1.942880513719175 2.059558626187995 0  3.04563492063492 2.971230158730159 0  4.375 3.4375 0  2.13639445139758 0.5994472256987903 0  4.272228422619047 2.606956845238095 0  0.625 0 0  0 0.625 0  5 4.375 0  4.375 5 0  0.6400043240752655 2.384646170113389 0  1.347691225855598 1.660875475110776 0  3.515783617857982 3.723905460714006 0  3.125 0 0  1.875 0 0  0.625 5 0  4.375 0 0  5 1.875 0  0 1.875 0  0 3.125 0  1.875 5 0  5 0.625 0  0 4.375 0  3.125 5 0  5 3.125 0  1.489644181965304 0.6007147273217681 0  2.054597701149425 3.742302955665024 0  2.662520990197781 4.39452575763237 0  2.415835363784578 3.165530021913244 0  0.8679986894865213 3.602373689486522 0  1.267459753787878 2.886186079545454 0  4.099702380952381 1.365327380952381 0  1.316964285714286 4.438244047619047 0  3.7915135293491 1.959691594758709 0  2.875141124191255 2.118761176511833 0  3.00418010501169 1.397414179299248 0  0.4081721322167092 3.410647930198662 0  0.4166666666666666 0.9375 0  1.014190407998288 0.4422301359994293 0  1.383260571305984 1.162718286082048 0  4.53125 3.90625 0  4.453125 4.453125 0  3.772848162504192 4.48678272083473 0  2.8125 0.404329517041716 0  0.4538690476190476 0.4538690476190476 0  2.305461739347387 1.04517007574828 0  3.771263799175824 2.624190260297553 0  3.229617768018734 1.809956994202883 0  3.780190884441317 1.025307111692601 0  4.646337365591398 0.9375 0  4.537623451379149 0.4609485750426037 0  1.200477888421151 3.934852888421152 0  0.3536626344086022 4.0625 0  0.4623765486208503 4.539051424957397 0  4.0625 0.353662634408602 0  4.560525106689535 1.390989100915847 0  3.958439078571988 3.619844539285994 0  4.672619047619047 2.1875 0  2.1875 4.672619047619047 0  1.862808494877602 3.325947624431087 0  0.3268135998175443 2.8125 0  4.674181280189791 2.8125 0  2.283233994935276 4.138623547175983 0  0.9375 4.677879119362977 0  3.08488061581743 3.469889594488945 0  3.113427375573758 3.913955730709506 0  1.652847799068813 3.950848935641292 0  2.932652662909449 2.550542739521724 0  3.311350648514189 1.088831994878698 0  0.6770833333333333 1.295851139601139 0  0 1.5625 0  1.047214787840024 1.96818092308125 0  4.183331482095785 3.03958703580843 0  3.4375 5 0  1.071307777252521 3.246275861010018 0  0 2.1875 0  0.386576856303419 2.03125 0  1.713862716483534 2.439783116849799 0  1.775396256975935 1.665976816304977 0  2.231236976948428 1.443917394671254 0  2.373900732409897 2.086930260150635 0  4.114918237574474 2.221646174618671 0  3.661302567757379 4.099620139144836 0  3.378215938602977 2.734494874063393 0  0.9842097536079312 2.597286741306247 0  1.642795138888889 4.672619047619047 0  4.0625 5 0  2.099458800960004 2.567446522665629 0  2.616202751603346 1.297895893940078 0  5 4.6875 0  0.9937554350075428 1.512592975947215 0  2.8125 5 0  3.002695327068194 4.614055254615477 0  3.205627424097207 0.3852436382721472 0  1.678616581261621 0.927556612265266 0  3.365326698305438 3.196943731162083 0  1.554834936170314 3.120009882655813 0  3.108408340729323 0.7797187795784133 0  3.684368918102174 0.3728877601163941 0  2.716214835303553 3.39276351922003 0  2.37718583984784 3.551973401560441 0  0.3750662445374837 1.52191994866787 0  2.679073487930202 2.844160731602957 0  1.557635869750078 1.991068682985722 0  1.812595698561088 0.3839273018252746 0  2.512014721281916 0.6320641118792227 0  2.1875 0 0  2.349973454443689 0.3189980586887866 0  4.6875 3.59375 0  4.636052949022233 3.178355898044465 0  4.6875 5 0  3.345485909784306 4.665765449101383 0  0.536727472389443 3.749603193819277 0  4.349541499640203 1.116201826262156 0  2.886559045931982 1.774013674579691 0  0.6770833333333334 0.7142857142857143 0  1.5625 0 0  4.120842096538671 4.628726497527622 0  2.176157474177018 1.793470423744689 0  2.175650736889416 2.909863021769539 0  4.036616464259081 1.709699085170981 0  3.887974623473683 0.6492597046022868 0  3.4375 0 0  3.70675699592552 2.289666624772415 0  4.697265625 4.208984375 0  2.815177577303495 4.085937578239174 0  4.672619047619047 1.730733296184288 0  4.6875 0 0  5 0.3125 0  0.3125 5 0  0 4.6875 0  0.3276089296588581 2.484526834811734 0  0.712433309515852 2.065138854645612 0  0.6376435912223634 2.711473454001295 0  1.184991292170422 0.7222504400947201 0  1.31884329779317 0.3206944232264773 0  3.683609198994263 3.44428698533042 0  0.3125 0 0  0 0.3125 0  4.231797269642997 3.789141808928991 0  1.564375596050781 1.425998687184973 0  2.007640894175573 0.9032106925568466 0  0.955125897558294 2.276666098587227 0  1.43898735721003 2.611310720271951 0  1.954491523717513 4.040700257877075 0  1.752947649777421 3.652439445419346 0  2.509575750247638 4.678021307664052 0  4.687194709705067 2.499965519538002 0  1.5625 5 0  0.9375 5 0  5 2.8125 0  2.1875 5 0  5 1.5625 0  5 2.1875 0  4.0625 0 0  5 0.9375 0  2.8125 0 0  0.9375 0 0  0 0.9375 0  0 2.8125 0  0 3.4375 0  0 4.0625 0  5 3.4375 0  5 4.0625 0  4.010848109290813 3.306446973933037 0  0.3077461147713075 3.119700563473354 0  4.6796875 4.6796875 0  2.333079012424948 3.845757959077508 0  0.7829771267899832 3.317744656243421 0  1.159100632608513 3.532487125138763 0  0.799066251840424 3.893573750162776 0  1.57326499580282 4.255438189102632 0  0.7309366047093668 0.2991402264438908 0  0.3054777494262156 1.223275888123843 0  4.027475154280377 2.78211326942427 0  2.35270874745988 4.426658168476266 0  3.474236283732569 2.021154281686229 0  4.401414236174444 2.329446628171927 0  3.39403781747337 3.987097102903034 0  1.077524329801934 1.214100792470484 0  4.065611571711903 1.066085524514197 0  2.165399002716117 3.335637450367864 0  3.007639563081306 1.093684039371638 0  4.030818285732145 4.351883315180857 0  3.504115222530889 1.739284194222036 0  1.224503368215566 4.712091441401919 0  3.805634204685714 1.321528442399996 0  4.319233123479386 1.573547993867769 0  1.024007670021325 4.394604704797005 0  3.776400432023095 3.839003324979723 0  2.991819819453308 4.320567175146181 0  0.9782797534072181 2.886406017887129 0  1.763835134082104 0.6602345487826022 0  3.765182288741625 1.631193038541544 0  2.267959593989681 2.345053543725764 0  4.412434895833333 4.168294270833333 0  4.4072265625 4.7255859375 0  2.791493971314009 3.11210833271929 0  3.408766223032414 3.469500900677365 0  1.915147569444444 4.725484476461039 0  2.070301968506271 0.2605666686358055 0  2.767932250651506 1.530295992695836 0  3.280065043173439 1.364863281105779 0  4.45101570110842 2.974157152713635 0  3.521928862999512 2.96990445010402 0  2.552921961347576 4.008414007169315 0  0.2682955376854191 3.657555015841003 0  3.084522868361304 2.310593316718068 0  2.669255823227708 1.939379494498064 0  2.615884629473921 2.238841231570381 0  1.405652091971449 0.8877813821442277 0  3.25151486618811 3.68536115104276 0  1.963741569810629 2.331207252264507 0  4.017297980292599 2.486269171379106 0  3.869168920841219 4.748188103831625 0  3.596868753579134 4.77342723825056 0  2.41262958240343 2.764128584995838 0  1.266750578673391 1.404747710001619 0  1.559243962241121 2.85146506328516 0  3.128799423834764 2.052081657715259 0  0.6770833333333333 0.9778025793650794 0  0.2083333333333333 0.78125 0  1.978224492765132 3.087074731032578 0  4.051448850909273 1.969392119104174 0  1.320577095006813 4.172234780971559 0  3.214261103850064 2.534397293281829 0  0.2635729089754111 1.779234736680035 0  3.510775680035133 4.460728640112889 0  2.603081405968802 0.2432579385496493 0  2.866341315154884 0.6662105505481998 0  3.000919221100777 0.2270278495648781 0  1.298858304121393 2.05917319923859 0  2.020292299736597 1.589794568392338 0  0.7401688396476035 4.470780315741533 0  0.6721783535561408 4.733125588707921 0  3.753712482075402 2.874301339727514 0  3.557348205914658 2.491958694539413 0  1.094565978195436 0.2011034254079851 0  0.9338148378011396 0.6833568465908735 0  2.945530578578538 3.701798332963805 0  3.111707186654356 3.216904195825605 0  1.341791111822685 3.293123262233967 0  1.632939924064587 1.184895891095613 0  0.6335477978936732 3.517393619499591 0  0.5576014611130192 3.210998966942492 0  1.564344196470102 0.3630498725895039 0  2.75362450242839 4.626680495816594 0  3.571304405229554 1.192452351107437 0  3.522934592621944 0.9359134489437148 0  4.453125 3.671875 0  4.765625 3.828125 0  1.055906321410838 4.14310472322957 0  4.795146539102229 0.46875 0  4.767156345199235 0.7178596932040019 0  0.2048534608977711 4.53125 0  0.232843654800765 4.282140306795998 0  0.5393715189906129 4.270810883024032 0  4.329922600274667 0.2750645887059072 0  4.275515096738972 0.5448389557295173 0  4.477747423652795 0.7252838358993123 0  0.2002829820452772 0.46875 0  0.4352678571428572 0.6956845238095237 0  0.5007241582667088 0.2123388122114133 0  4.672890923830735 0.2500902110494848 0  0.4308009280819452 4.783624996516437 0  2.104871305393774 4.438653689007242 0  0.2274454167838428 0.2274454167838428 0  3.446466574593436 0.4359605369011901 0  2.12354112127588 1.217588426759619 0  2.309175236825235 0.7888355970690434 0  2.556178570281936 1.054299163237582 0  0.578683248637
[...]
<PointData  Scalars="f_10845-1"> 
<DataArray  type="Float64"  Name="f_10845-1"  format="ascii">7.6108227385860188e+06  2.0997814276872770e+01  1.9482567611052382e-02  1.8700519394777054e-02  3.9022528639420066e-02  1.9400245411283251e-02  1.0385211264898612e+06  9.2139177027324349e+07  3.4646146315216751e-02  -3.4235823976077270e+04  1.1258764915842173e-01  2.8369018275481369e+06  2.3999946511499932e+08  1.9468258406779362e-02  2.9172744090530136e-02  1.9393470177531569e-02  -4.4940208571037221e-01  3.0600779742015419e-02  4.3019967249523558e+07  4.5990679315515010e-02  2.9041692965596271e-02  1.3207745379689400e+03  1.4334932464212875e+01  1.5219483993350383e-01  2.5977348349970342e-02  5.1314138986830577e+07  3.6695635448387942e-02  2.3937962501446303e+07  2.4458834642598275e-02  2.5621309916756652e-02  1.1867514859821348e+08  3.2033942067146326e-02  -1.1833571202786932e+03  -8.0761088313130017e-02  3.8421206937520581e-02  -3.9123959883514750e+01  3.1279245656419409e-02  -1.8630049938223059e-01  3.4095205861511296e-02  2.4215756654670059e-02  4.2347875881868204e-02  2.4982203671555743e-02  1.4207766844857048e+00  3.1428489556238702e+02  1.9390451971682546e-02  2.0156496799285838e-02  -8.2286520354730785e+06  5.4600030186648230e-01  2.9679807590518276e-02  3.3890192069297533e-02  4.6885708861926570e-02  5.0785385934684360e+06  2.4310064165658965e-02  1.9363201241870440e-02  6.8603101640409201e+07  3.3037813767263936e+06  2.4319384714061096e+06  1.9501949289498024e-02  8.5214255722770870e+07  7.5680833808891157e+03  1.9340626857890730e-02  5.9820463805133492e-02  -1.3888033846382921e+04  8.2478299696771428e+03  1.8469632653242243e+00  2.5625450243391934e+08  -5.6349332005285507e+05  2.6350621481425265e-02  3.7092193941470347e+07  2.8717770018607817e-02  3.5858749734000044e-02  3.4850369506986258e-02  1.0068539385915646e+08  4.3913636814740876e+01  2.6047791428672823e-01  6.1314399804093180e-02  2.3012897295082522e-02  2.2909540225094904e-02  2.3215306552355541e-02  3.6385354308752248e-02  -1.7709626969648578e+00  4.0560978108636389e-02  2.8921513103709644e-02  3.3122773331731588e-02  2.8842624717097462e-02  2.2181819828741747e-02  2.3045550744202024e-02  1.9928890922046930e+08  1.6405395055146319e+08  2.8717471335474830e+07  2.6711493008426943e-02  2.2739893188594932e-02  2.7294862684869851e-02  2.1913445447536331e-02  4.8939220241885502e+06  -1.3643609098901984e+03  -4.8243438375585167e+04  2.1837228474865161e-02  1.9635114745665560e+05  1.4087079202019610e+07  3.8366794610391719e-02  -9.5434622066938340e-02  6.2077208269548878e+07  3.5366999227457042e-02  3.2398670135929217e-02  3.0323777854871594e+01  6.2237039506718051e+05  7.4328061971568309e+02  2.5737077772926012e-02  2.8431013623906637e+01  1.3844252601667115e+08  1.6629818961206577e+10  -4.0241092760886962e+05  -1.3844759193988821e+02  -2.1719784968533169e-02  4.1131649187874361e-02  3.8860225245387868e-02  2.6163597117555604e-02  2.8232007624641644e-02  3.1938948780730121e-02  -1.2896483986217009e+06  1.1329376328502584e+07  1.7903817677959340e-02  1.8719415419887662e+00  3.7954439010539770e-02  1.9198284940930416e-02  2.0340019577945139e+01  1.6474899856601181e+05  3.4621226807304382e+01  3.3299983794649712e-02  5.0622863523516068e-02  3.1772904445592283e-02  -4.4008975491315214e+04  3.4028779079675935e-02  2.9540671198442725e-02  -2.9027987347826356e-01  -3.1440983182613664e+01  2.3829709183761537e+04  3.9872792341112948e-02  -3.6382899570024332e+00  4.7995632999074216e-02  3.8732508518975341e-02  4.1884142017717355e-02  4.0142161380045061e-02  2.1799554126983492e-02  2.2167418341179586e-02  1.9784828048720969e-02  -9.7643501298348490e+00  2.6003669909287634e+08  2.4378946567458541e-02  3.5813414623460216e-02  1.7862643680659516e+00  6.0852019995037518e-02  2.3022482055020912e-02  4.1303756867732758e-02  -1.1326553098452927e+00  2.6783775043203315e-02  2.7955492701097356e-02  3.1509817249626690e-02  2.9398851014671504e-02  2.1639371440354792e-02  -5.7458042886232823e+00  2.1893971056964966e-02  2.1901430786670954e-02  1.9521560626090971e-02  6.6709290980847366e+06  2.5763149047419012e+07  -4.5517155190460229e+08  3.8677856801713409e+04  -6.6843163675727427e+07  1.4114972496320760e-01  8.3459627789272864e-02  2.9365520984116246e-02  7.3505714633808950e+00  7.3860193217637224e+00  2.5225285217701243e-02  3.8356934360668324e-02  4.3698269636735843e-02  4.7644606290619020e+04  -7.7452378612961165e+03  6.8183329442825532e+06  1.6697536730119425e+06  7.3626127611660876e+05  2.1734507954619779e-02  2.9729802349577257e+06  3.3664616922454513e+06  1.9360064053271779e-02  1.9110542216758956e+06  1.9396506561195289e-02  1.9383558969970197e-02  2.6724373876396215e-02  1.9514662814180496e-02  3.6393591275996853e-02  3.0687294394060993e-01  7.3508304482666153e+03  1.7028452542229998e+03  9.9761011143201485e+07  1.5178564754627204e+08  1.9375912566520614e-02  1.9392399042341895e-02  2.7028888407740197e-02  4.7645843866325431e+06  2.1153025500841947e-02  -3.5591195959601896e+03  1.0186921623085511e+08  2.5015617441028568e+08  2.3499450125500003e+08  6.1082125150640950e+07  1.1106361071121817e+00  -1.2276165020478027e+03  2.6922392745997073e-02  9.7214577786690835e+05  3.1210056342770125e-02  2.3925936542760245e-02  4.4810937015424927e-02  1.7095862193738648e-01  2.6599958313858699e-02  -1.7058073486730123e+02  3.4774575151565013e-02  2.4901024922427337e-02  3.0934465352162238e-02  1.2689684921149319e+07  2.8636129790229690e-02  2.4647192390373877e-02  5.2231248081835121e+07  2.8075055878548909e-02  -3.6056100820696464e+01  -1.4864174624148216e+07  4.8365294314272306e-02  2.8865085030183851e-02  4.8895971568446023e-02  2.3673706947005695e-02  2.1909772800268422e-02  4.0624251138663837e-02  3.0994536647223663e-02  7.3932965102504091e+06  4.3248542808523978e-02  3.6719410565192748e-02  3.2658114791078649e-02  2.3606004978711053e-02  3.0793856809002255e-02  -3.0089035583236233e+02  2.3153701837659314e+08  3.4227537807784571e-02  3.7483670553277303e-02  3.7763513864381634e-02  7.6502333018422741e-02  3.3801166440189864e-02  -4.4411100962392114e+00  2.6977090612348275e-02  1.7209118302044579e-02  -6.8943207843120458e-01  -4.3540818268491342e-02  4.2444031369252781e-02  1.4005595929026720e+04  3.3902087833484411e-02  6.2872580920831025e+00  -1.0120004256390563e+02  1.3481345958010925e+02  2.6659842594576256e-02  9.8642402563849851e+07  3.3211623189593843e-02  4.7723016107624350e+05  5.0142246679972649e-02  3.8069648952730711e-02  3.5871448100474344e-02  3.4903202218502467e-02  1.7052084854331095e+01  4.2194949471174824e-02  3.6603657517407887e+07  1.1658580009118749e+07  2.9022430582818597e-02  3.0580920808943347e-02  1.5435038579741131e-01  2.1179597626496438e-01  -6.1062457306595354e-02  3.2614252748421321e-02  2.8337828122225055e+06  5.5085987313947947e-02  1.9081161735902137e+08  2.5452547313677806e+07  5.8067139047623957e-02  3.7750299767445671e+04  3.0426079315964166e-02  3.0861392004478704e-02  2.3600957317117310e-02  2.1202152263359014e-02  1.2076110904641379e+08  2.1042315063506602e-02  2.1292256015935554e-02  4.4676354974997833e+07  8.0449145337312520e+07  8.3973760552145466e+07  2.4655839827959165e-02  2.5060249725833528e-02  2.3491284346560337e-02  3.7621137568080897e+01  1.2918717690858730e+00  2.6580687460774812e+00  2.2017324042472496e-02  1.4189017815917967e+07  7.9100076247224286e+06  9.1266108283347105e+00  3.1391943014468016e-02  4.2228975223853958e-02  4.0577671009855390e-02  3.8446592070737959e-02  2.0416283210234958e+08  3.2553293932936940e-02  1.7148481832999693e-01  2.3015450602036557e+08  2.8248404239059676e-02  2.1388176527095001e-02  2.1158326165963755e-02  2.1026536176136514e-02  7.8101930594348085e-02  1.4948754562215060e+08  2.6422008783378044e+08  3.4328833013957463e-02  2.4321954694449793e-02  3.4122818729890370e-02  2.9563205810294244e-02  3.6319093273077709e+00  -4.3201557288868196e+05  -3.3271531579486298e+04  2.4494809752710713e-02  5.1488462386739195e-02  2.3598155144760973e-02  9.8363612240945422e+03  -3.1122314404310431e+07  2.1146500255581846e-02  -1.7995544399681796e+04  2.3213461383102484e+04  2.5943806701718093e-02  2.6763119950090539e-02  2.7307677551887320e-02  2.1410320937697091e+06  1.9884099543272736e+06  -2.0841568103560970e+04  2.0573759595117629e-02  2.3152763305300961e-02  9.5628937819012378e+00  3.2684159476950317e-02  3.2372975309231493e-02  2.5788514557157825e-02  3.0282635387202498e-02  2.0600227576663594e-02  2.1183665667794177e-01  3.6250803474896412e-02  7.8045459984923266e+06  -2.9394823365051369e+01  8.2769440174094996e+02  3.1492692344036272e-01  6.2564642797043774e+01  3.2454295083068657e-02  3.0412067246898714e+07  -8.4781767474483852e+09  2.0573585400968458e-02  2.0643718494147780e-02  3.7273204535975837e+05  1.4793855248824336e+07  1.9991003851593324e-02  2.7358824992851267e-02  2.4979554173978652e-02  3.6582265587920937e-02  2.1370605167529873e-02  3.4419498524500658e-02  4.9992890532169029e-02  4.2535225494163051e+07  6.0242067504095240e+06  3.6299602879050076e-02  1.6422718486265960e+05  6.5173988551995476e-01  2.4202239448661161e-02  1.8510765595221895e-02  4.5113659629778985e-01  3.9700121317647184e-02  1.5192268893792974e+04  2.7074090755393816e+00  3.3975179537078279e-02  -1.8546465106490356e-01  1.8119749852248835e-02  2.7528355007728454e-02  -1.0721058021474209e+03  -6.3694375223849670e+02  3.5716808841147922e+00  3.1849592457734019e+04  6.8271636070869807e+06  2.2821302786699710e-02  -3.9970146068208828e+03  3.8738435422776288e-02  1.0407478711171919e-01  2.7387430986341860e+07  9.2802128880282748e+04  6.4932683319951201e-01  2.4395403123962447e-02  3.5466527428165057e-02  3.2775748540064521e-02  2.2539171573344216e-02  -3.0271501793059073e+01  6.3652931211697421e+02  3.9979613015548959e+07  2.7754654775407353e-02  2.5179104856790521e-02  1.9990481814555924e-01  2.5443681528766724e-02  1.2452090021688184e+02  -6.5299147097391859e+06  -3.8864167578050024e+00  2.0607220204906129e-02  3.9836839860178129e-02  3.9052926612600826e-02  4.0272626461990153e-02  2.4217219115446432e-02  2.2659951095647267e+08  1.0035395967412943e+08  3.0286529203055274e-02  2.3113627452513321e+00  -1.4975983794810363e+03  3.0275582682252154e+06  7.5512630104665482e-02  2.3391839616098822e+00  2.8641869712120887e-02  -2.5565620175570999e+01  -8.2814916763571929e+05  -8.8257975321175775e+05  2.4900164266510749e+08  3.0512954466324526e-02  2.9254205818480646e-02  2.7074074487492817e-02  7.9491402770777195e-02  9.5271983112359104e-01  5.2349291124531012e+06  1.8060430467327576e+07  2.6599093256038854e-02  3.8641336550769019e-02  1.3300051072686976e+08  3.6500999278045246e-02  -2.5443674994688035e+00  6.6569751468913849e-02  2.2943021597573977e-02  1.2406542112856667e+08  2.7339134132665414e-02  2.9953573263491032e-02  2.0886458047104810e-02  4.4696401579592210e-01  3.2189809896538434e-02  3.6360154188974703e-02  4.5181430975276868e-02  2.3125718477774983e-02  -6.6707660053630660e+00  -9.2367797473548025e+07  1.6078938432866391e+02  2.1722656151178573e-02  2.3486726888341219e-02  2.1972900407928769e+06  4.3358537826316726e-02  -1.0777905625898832e+01  8.2919648005942048e-01  2.0420368496689774e+05  1.1203036120058002e-01  3.3567469884710426e-02  -1.1315431809069920e+08  2.5542466502644929e-02  2.5980136061050669e-02  -1.5013385061129879e+07  1.6082779277954699e+07  -4.5753315247518540e+03  3.3652751842438669e-02  5.1900963193577695e+01  2.8126730757627769e-02  5.5513830922627287e-02  4.7528770689829206e-02  4.0338973853898522e-02  3.7336726383549519e-02  3.7351376509615793e-02  7.8021684668965143e+00  -9.9460751759050112e+01  -8.4583888133450788e-02  3.4340202908082113e-01  3.9732392345631812e+06  2.3649659446586809e-02  2.3041742331487470e-02  2.4859966940182086e+07  4.9569335917509106e+03  9.0909165523008801e+02  6.3815686906941047e-02  4.1896375160798471e-02  -5.3049884133965884e+02  7.0937208466021314e+07  -2.9738859660688660e+05  3.5337297607180608e-02  2.5531987019502482e-02  3.4533348796331229e-02  1.9362865211963554e-02  2.2004504547105765e-02  2.8444387247354003e-02  1.9801250795847741e-02  2.5059002844390413e+08  2.4872721299767597e-02  2.7364595798765656e-02  3.3086233801555988e-02  3.5992055083392094e-02  5.6535592722172634e-01  1.9488045921466975e-02  2.0814275927515110e-02  4.2501777864918569e+06  4.6264875695201678e-02  2.6442100799857071e+08  2.1238866631281549e+08  3.0082444396584130e-02  2.1981696499519515e-02  4.4042199146467523e-02  -5.2472538497304720e+02  4.3864324388689202e-02  2.1437573861686365e+03  2.7420773452766018e-02  1.8689006892535913e+08  1.9883376275144583e+08  6.7077501363586634e+06  6.8950455576597676e+06  4.1282837637876497e-02  5.2585478544752220e-02  3.6871137343783715e-02  2.2477776413494355e-02  3.6399705776463740e+07  4.4317919109430969e+07  3.0800822635978990e-02  2.9831571600164773e-02  2.8482187885824503e-02  1.6118134224485075e+08  2.4926610651992614e-02  2.5505719869967625e-02  3.9389232719973070e-02  1.9447690275782636e-02  2.5761880799636101e-02  2.6135327705464929e-02  2.7624196280210688e-02  2.0571603793616670e-02  2.2392386454270861e-02  2.0757832008168792e-02  1.9452599202446953e-02  1.9610811259907866e+06  2.5405714626209983e-02  -3.7166101060214033e+05  1.1590658535220892e+05  3.2596988695091145e-02  -2.3516733382932826e+00  -3.8215676915418677e+00  3.1890403511223589e-02  2.0504277418758335e-02  2.2677754736103516e-02  3.7146701200278985e-02  3.6086439825996408e-02  2.2427537254095940e-02  5.6004433876433954e+07  -1.3845232707888019e+05  4.6173457464427366e-02  2.7712717797157158e-02  9.3575030808113944e+06  2.3327215884023131e-02  1.7017213688174204e+00  4.4191523803055501e+00  -1.2531084787813676e-01  -2.4314050205714502e+03  2.0692816192694908e-02  3.0701942177831686e-02  -7.9798327594869193e+06  2.0688251613677874e-02  2.5026161786364455e+07  3.4636665831661168e-02  3.1675001297521814e-02  -1.3074143620856475e+02  2.0325995598235794e-02  3.1847164129680507e-02  -9.1655866756982174e-02  2.0633556188748629e-02  -1.5727604634595496e+04  -9.6681899842676166e+06  3.1173995271337401e-01  2.3081463735874237e-02  2.0603344971212859e-02  2.5580680423044446e+06  3.1913245653431975e-02  1.1847210560473788e-01  3.3660902075514192e-02  1.9392522743450092e-02  4.5726881301596432e-02  4.2147632353518347e+04  1.0546826209596982e+04  3.1847451186471698e-02  -6.8829023623655010e+06  3.8465735540510533e-02  4.1751904805086240e-02  2.3155134042739976e-02  2.8985732330696300e-02  1.0727432520595297e+00  -5.1613293778422725e+05  8.0187189605584436e-02  1.0214697410224872e-01  7.0727289131169171e-02  1.0247088495640709e-01  1.9651815277174525e-01  2.0637478060263496e-02  1.9378501112067223e-02  1.1093397298109757e-02  1.7120545535621667e+02  3.7131068338422557e-02  1.2979560463569971e+07  3.2565848626997948e+01  2.9973579387551186e-02  2.2235251957511019e-02  4.3913553733747522e-02  2.4042937204687146e-02  2.3311215544984901e-02  2.2636751029640703e-02  2.8163533668434415e+01  2.3948225357309727e-02  4.1660932105245407e-02  2.6097480576277959e-02  3.5452728533071992e-02  1.2122769769845050e+05  2.2448037883528485e+06  8.7969926997350587e+00  9.6472789522727052e+00  2.5537573586244162e-02  3.7661002768300013e-02  2.1892014959774834e-02  9.8420489887921470e+00  1.2342847296320435e+08  2.0558171922503098e-02  5.8039895263140504e-02  -9.2517831688578619e-02  3.1888736929929912e-02  2.6295323179063329e-02  -3.6884099937582148e+04  4.2144560041620191e-02  -2.9477025234823095e-02  1.6214555055585400e+00  2.3909079302218181e-02  2.6669404366352834e-02  4.4646655849356266e-02  2.4872244023247246e-02  2.3272640145188323e+01  9.2083076799297348e+07  4.1079840977065139e+07  7.9533906236873910e+07  -2.9705039171286346e+04  2.6147087251216266e-02  3.1456180763023818e-02  3.3136014154265127e-02  -1.6860253387018289e+00  1.7326344886034928e+00  2.7750956142615014e-02  2.1777512942831416e-02  2.0506943925650240e-02  1.0039606057047552e+08  -7.7612256278792508e+06  8.9572892113842579e+04  2.0522995274305057e-02  4.0365522417918839e-02  2.0022501573224435e-02  2.7169365356659763e+06  2.0144837328032038e-02  1.3903647740616532e+07  6.7518199001813987e+06  4.5375507036560640e+05  2.6614526867009856e+07  3.4356520118753267e+06  1.9355936060241320e-02  3.0351449344737238e-02  3.2693614399995533e-02  1.9398595692415484e-02  1.9372938660634977e-02  1.9345929720835688e-02  -4.6785299791987020e+08  6.6466715196842470e+09  4.1009079788169207e+05  1.4669302544450290e+06  -1.6002829347007997e+04  5.1786029661616911e-02  2.7935261069071782e-02  2.1696782449303851e+08  5.6903822943234118e+06  4.1444219897856494e+00  4.7581048369907834e+07  1.9531593014155361e-02  1.7782637712025734e-01  3.5154774558664864e-02  -1.7318176717693379e+02  6.5647994534880072e+03  -3.3299855295443677e+00  1.9304457938344958e-02  1.9049753218505112e-02  1.9368931840269086e-02  1.4142762951472992e+05  4.4137009614869618e+04  2.0181778937115978e+03  1.9386964874649887e-02  1.9431173497058703e-02  1.9498664982002811e-02  2.8669051807976104e-02  1.3791299599635330e+05  -2.0790235933640500e+02  5.5897973867193470e+06  3.5281485082528923e-02  1.0107199899229821e+06  7.4643872657761415e-02  1.6046688873092068e+00  -2.0809302528955853e-01  2.3219204233986882e-02  3.8989750256800360e-01  -1.9137592520092087e-01  -3.3597615791937683e+03  1.7701372006046021e+08  -6.6127645450837690e+02  4.1964311968938524e-02  1.8981266596519433e+07  2.5670486484470899e+05  2.9035547504541404e+06  2.7854439077553961e+07  4.9618173113718163e+05  1.0153394052859425e+04  2.3228429059419125e+02  2.3034343096406586e-02  3.1182716851737628e-02  7.6340028104885225e+05  2.4354363502267155e-02  -8.8845169513636213e-01  2.0641866684469816e-02  3.3671480817294256e+06  1.1633890184825512e+06  1.4650259540309485e+00  -3.0224217121768233e+03  3.8468281865706472e-02  2.3990183896775499e+07  3.5633701890657996e-02  -3.4196638893058808e+00  -3.3427418977475384e+01  2.8394767324069502e-02  2.2498572330958110e-02  9.6121141367457985e-01  2.4685894096341709e-02  2.3782164298644774e-02  3.7043343079417205e+03  3.1942401357923166e-02  4.6839954171973563e-02  3.1128071210220713e-02  7.7839254004849368e-02  2.3195120825924891e-02  1.3682134608777782e+08  8.0983452155777127e+07  1.0733802511024992e+00  2.8168335608257829e-02  2.7693194985345265e-02  2.6087871979841644e-02  2.6297289834929270e-02  5.9276559399651848e+07  -7.5450199521974059e+02  9.6597126173060587e+02  2.6899920453474712e+08  3.7940902983010449e-02  2.7307534048343563e+08  2.5380004925639099e+08  1.3651848603123584e+04  3.5019798170577279e-02  2.9827432848007252e-02  2.9221879644814763e-02  1.2598802200068207e+08  -9.3002721281261911e+03  4.3821555562021732e+07  1.6332818936082211e+08  1.8417420832641169e+08  4.1332136927043871e-02  2.4558955484272435e-02  3.9664774302031458e+06  8.7676756558510964e+05  4.0037638514654636e+07  6.7460982231006429e+07  3.0365439666206785e+07  -2.0885427733058595e+01  3.3505080674517962e-02  3.5571596340495407e-02  2.3314777619507301e-02  2.0893100631778912e-02  2.4208427440795783e-02  -3.1328220239162342e+03  -8.5723719367697980e+04  -1.1933599841768704e+07  3.3059709759629602e-02  2.7120438511650479e-02  5.3967672713673039e-02  3.7533655172234795e-02  9.3788831865357178e-02  -6.7776913657659208e+01  2.8758161112960003e-02  2.5373967685405133e-02  2.4910846191717177e-02  2.0631283746373213e-02  2.5373785322069374e-02  9.0936516611582059e+06  -2.1259093213685308e+07  -3.7621391928744391e-02  3.6426640030357567e-02  -4.3878623567679496e+06  4.9432864500915021e-03  3.4576977511843458e-02  1.5661219629150578e+08  2.2351992851920979e-02  3.9896542169659176e-02  -4.7383355272522829e+00  -7.6729421524790116e+05  -2.7188803801117660e+06  2.3246014000565529e+07  5.9055998084300598e+06  2.7761331292024818e-02  6.6960219914555708e+06  2.7585025492277950e-02  2.2503276716938983e-02  2.2340564093219162e-02  9.3662315366379485e+07  3.3877505208060953e-02  2.1886863684878993e-02  2.5904430148192579e-02  8.19011991132496