<?xml version="1.0"?>
<VTKFile type="UnstructuredGrid"  version="0.1"  >
<UnstructuredGrid>
<Piece  NumberOfPoints="6486" NumberOfCells="12696">
<Points>
<DataArray  type="Float64"  NumberOfComponents="3"  format="ascii">0 2.5 0  0 0 0  2.5 0 0  2.5 2.5 0  1.25 0 0  2.5 1.25 0  1.25 2.5 0  0 1.25 0  1.25 1.25 0  0 0.625 0  0.625 0 0  0.625 2.5 0  0 1.875 0  2.5 0.625 0  1.875 0 0  2.5 1.875 0  1.875 2.5 0  1.770833333333333 0.7291666666666666 0  0.7291666666666666 1.770833333333333 0  0.9375 0.625 0  1.875 1.5625 0  0.642361111111111 1.163194444444444 0  1.341594827586207 1.883979885057471 0  0.46875 0.46875 0  2.03125 2.03125 0  0.3626104797979798 1.513178661616162 0  1.381740196078431 0.4564950980392157 0  0.9375 2.172619047619047 0  2.172619047619047 0.9375 0  2.096354166666667 0.4036458333333332 0  0.4036458333333333 2.096354166666667 0  1.684027777777778 1.163194444444444 0  0.3418803418803419 0.8693910256410255 0  1.642742622813391 2.162164207604464 0  1.275619849389031 0.8465650753054845 0  0.9136284722222221 1.434461805555556 0  1.732437511238546 0.3406962303960658 0  0.9714402568595876 1.029779313093998 0  1.52281746031746 1.485615079365079 0  2.1875 1.71875 0  1.06819722569879 0.2997236128493951 0  2.136114211309524 1.303478422619048 0  0.3125 0 0  0 0.3125 0  2.5 2.1875 0  2.1875 2.5 0  0.3200021620376328 1.192323085056694 0  0.6738456129277992 0.8304377375553881 0  1.757891808928991 1.861952730357003 0  1.5625 0 0  0.9375 0 0  0.3125 2.5 0  2.1875 0 0  2.5 0.9375 0  0 0.9375 0  0 1.5625 0  0.9375 2.5 0  2.5 0.3125 0  0 2.1875 0  1.5625 2.5 0  2.5 1.5625 0  0.7448220909826522 0.3003573636608841 0  1.027298850574712 1.871151477832512 0  1.331260495098891 2.197262878816185 0  1.207917681892289 1.582765010956622 0  0.4339993447432606 1.801186844743261 0  0.6337298768939392 1.443093039772727 0  2.049851190476191 0.6826636904761904 0  0.6584821428571428 2.219122023809524 0  1.89575676467455 0.9798457973793544 0  1.437570562095628 1.059380588255917 0  1.502090052505845 0.6987070896496241 0  0.2040860661083546 1.705323965099331 0  0.2083333333333333 0.46875 0  0.5070952039991439 0.2211150679997147 0  0.6916302856529919 0.5813591430410241 0  2.265625 1.953125 0  2.2265625 2.2265625 0  1.886424081252096 2.243391360417365 0  1.40625 0.202164758520858 0  0.2269345238095238 0.2269345238095238 0  1.152730869673694 0.5225850378741401 0  1.885631899587912 1.312095130148776 0  1.614808884009367 0.9049784971014416 0  1.890095442220658 0.5126535558463003 0  2.323168682795699 0.46875 0  2.268811725689575 0.2304742875213018 0  0.6002389442105756 1.967426444210576 0  0.1768313172043011 2.03125 0  0.2311882743104251 2.269525712478698 0  2.03125 0.176831317204301 0  2.280262553344767 0.6954945504579233 0  1.979219539285994 1.809922269642997 0  2.336309523809524 1.09375 0  1.09375 2.336309523809524 0  0.9314042474388009 1.662973812215543 0  0.1634067999087722 1.40625 0  2.337090640094896 1.40625 0  1.141616997467638 2.069311773587991 0  0.46875 2.338939559681489 0  1.542440307908715 1.734944797244472 0  1.556713687786879 1.956977865354753 0  0.8264238995344066 1.975424467820646 0  1.466326331454725 1.275271369760862 0  1.655675324257095 0.5444159974393489 0  0.3385416666666666 0.6479255698005697 0  0 0.78125 0  0.5236073939200119 0.984090461540625 0  2.091665741047893 1.519793517904215 0  1.71875 2.5 0  0.5356538886262603 1.623137930505009 0  0 1.09375 0  0.1932884281517095 1.015625 0  0.8569313582417669 1.2198915584249 0  0.8876981284879677 0.8329884081524883 0  1.115618488474214 0.7219586973356271 0  1.186950366204949 1.043465130075318 0  2.057459118787237 1.110823087309335 0  1.830651283878689 2.049810069572418 0  1.689107969301489 1.367247437031697 0  0.4921048768039656 1.298643370653124 0  0.8213975694444444 2.336309523809524 0  2.03125 2.5 0  1.049729400480002 1.283723261332814 0  1.308101375801673 0.6489479469700392 0  2.5 2.34375 0  0.4968777175037714 0.7562964879736076 0  1.40625 2.5 0  1.501347663534097 2.307027627307738 0  1.602813712048603 0.1926218191360736 0  0.8393082906308107 0.463778306132633 0  1.682663349152719 1.598471865581041 0  0.7774174680851571 1.560004941327907 0  1.554204170364662 0.3898593897892066 0  1.842184459051087 0.186443880058197 0  1.358107417651776 1.696381759610015 0  1.18859291992392 1.77598670078022 0  0.1875331222687418 0.7609599743339348 0  1.339536743965101 1.422080365801479 0  0.7788179348750389 0.9955343414928611 0  0.9062978492805438 0.1919636509126373 0  1.256007360640958 0.3160320559396114 0  1.09375 0 0  1.174986727221844 0.1594990293443933 0  2.34375 1.796875 0  2.318026474511116 1.589177949022232 0  2.34375 2.5 0  1.672742954892153 2.332882724550692 0  0.2683637361947215 1.874801596909639 0  2.174770749820102 0.5581009131310781 0  1.443279522965991 0.8870068372898454 0  0.3385416666666667 0.3571428571428572 0  0.78125 0 0  2.060421048269335 2.314363248763811 0  1.088078737088509 0.8967352118723447 0  1.087825368444708 1.454931510884769 0  2.018308232129541 0.8548495425854904 0  1.943987311736842 0.3246298523011434 0  1.71875 0 0  1.85337849796276 1.144833312386208 0  2.3486328125 2.1044921875 0  1.407588788651747 2.042968789119587 0  2.336309523809524 0.865366648092144 0  2.34375 0 0  2.5 0.15625 0  0.15625 2.5 0  0 2.34375 0  0.1638044648294291 1.242263417405867 0  0.356216654757926 1.032569427322806 0  0.3188217956111817 1.355736727000647 0  0.5924956460852111 0.36112522004736 0  0.6594216488965849 0.1603472116132387 0  1.841804599497131 1.72214349266521 0  0.15625 0 0  0 0.15625 0  2.115898634821499 1.894570904464496 0  0.7821877980253907 0.7129993435924866 0  1.003820447087786 0.4516053462784233 0  0.477562948779147 1.138333049293613 0  0.719493678605015 1.305655360135975 0  0.9772457618587566 2.020350128938537 0  0.8764738248887107 1.826219722709673 0  1.254787875123819 2.339010653832026 0  2.343597354852534 1.249982759769001 0  0.78125 2.5 0  0.46875 2.5 0  2.5 1.40625 0  1.09375 2.5 0  2.5 0.78125 0  2.5 1.09375 0  2.03125 0 0  2.5 0.46875 0  1.40625 0 0  0.46875 0 0  0 0.46875 0  0 1.40625 0  0 1.71875 0  0 2.03125 0  2.5 1.71875 0  2.5 2.03125 0  2.005424054645407 1.653223486966518 0  0.1538730573856537 1.559850281736677 0  2.33984375 2.33984375 0  1.166539506212474 1.922878979538754 0  0.3914885633949916 1.65887232812171 0  0.5795503163042564 1.766243562569382 0  0.399533125920212 1.946786875081388 0  0.7866324979014098 2.127719094551316 0  0.3654683023546834 0.1495701132219454 0  0.1527388747131078 0.6116379440619215 0  2.013737577140188 1.391056634712135 0  1.17635437372994 2.213329084238133 0  1.737118141866284 1.010577140843115 0  2.200707118087222 1.164723314085963 0  1.697018908736685 1.993548551451517 0  0.5387621649009668 0.6070503962352419 0  2.032805785855952 0.5330427622570983 0  1.082699501358059 1.667818725183932 0  1.503819781540653 0.5468420196858188 0  2.015409142866072 2.175941657590429 0  1.752057611265444 0.869642097111018 0  0.612251684107783 2.356045720700959 0  1.902817102342857 0.6607642211999982 0  2.159616561739693 0.7867739969338844 0  0.5120038350106624 2.197302352398502 0  1.888200216011548 1.919501662489862 0  1.495909909726654 2.16028358757309 0  0.489139876703609 1.443203008943564 0  0.8819175670410521 0.3301172743913011 0  1.882591144370812 0.8155965192707721 0  1.133979796994841 1.172526771862882 0  2.206217447916667 2.084147135416667 0  2.20361328125 2.36279296875 0  1.395746985657004 1.556054166359645 0  1.704383111516207 1.734750450338683 0  0.9575737847222222 2.36274223823052 0  1.035150984253136 0.1302833343179028 0  1.383966125325753 0.7651479963479179 0  1.64003252158672 0.6824316405528895 0  2.22550785055421 1.487078576356817 0  1.760964431499756 1.48495222505201 0  1.276460980673788 2.004207003584658 0  0.1341477688427096 1.828777507920502 0  1.542261434180652 1.155296658359034 0  1.334627911613854 0.9696897472490321 0  1.30794231473696 1.119420615785191 0  0.7028260459857245 0.4438906910721139 0  1.625757433094055 1.84268057552138 0  0.9818707849053143 1.165603626132254 0  2.0086489901463 1.243134585689553 0  1.934584460420609 2.374094051915812 0  1.798434376789567 2.38671361912528 0  1.206314791201715 1.382064292497919 0  0.6333752893366955 0.7023738550008095 0  0.7796219811205605 1.42573253164258 0  1.564399711917382 1.026040828857629 0  0.3385416666666666 0.4889012896825397 0  0.1041666666666667 0.390625 0  0.989112246382566 1.543537365516289 0  2.025724425454636 0.9846960595520872 0  0.6602885475034063 2.086117390485779 0  1.607130551925032 1.267198646640915 0  0.1317864544877056 0.8896173683400176 0  1.755387840017567 2.230364320056445 0  1.301540702984401 0.1216289692748247 0  1.433170657577442 0.3331052752740999 0  1.500459610550388 0.113513924782439 0  0.6494291520606965 1.029586599619295 0  1.010146149868299 0.794897284196169 0  0.3700844198238017 2.235390157870766 0  0.3360891767780704 2.36656279435396 0  1.876856241037701 1.437150669863757 0  1.778674102957329 1.245979347269706 0  0.5472829890977179 0.1005517127039925 0  0.4669074189005698 0.3416784232954367 0  1.472765289289269 1.850899166481903 0  1.555853593327178 1.608452097912802 0  0.6708955559113426 1.646561631116984 0  0.8164699620322933 0.5924479455478063 0  0.3167738989468366 1.758696809749795 0  0.2788007305565096 1.605499483471246 0  0.7821720982350511 0.181524936294752 0  1.376812251214195 2.313340247908297 0  1.785652202614777 0.5962261755537186 0  1.761467296310972 0.4679567244718574 0  2.2265625 1.8359375 0  2.3828125 1.9140625 0  0.5279531607054191 2.071552361614785 0  2.397573269551114 0.234375 0  2.383578172599618 0.3589298466020009 0  0.1024267304488855 2.265625 0  0.1164218274003825 2.141070153397999 0  0.2696857594953064 2.135405441512016 0  2.164961300137334 0.1375322943529536 0  2.137757548369486 0.2724194778647587 0  2.238873711826398 0.3626419179496562 0  0.1001414910226386 0.234375 0  0.2176339285714286 0.3478422619047619 0  0.2503620791333544 0.1061694061057066 0  2.336445461915368 0.1250451055247424 0  0.2154004640409726 2.3918124
[...]
<PointData  Scalars="f_16-1"> 
<DataArray  type="Float64"  Name="f_16-1"  format="ascii">5.6533161249409459e-04  1.7305070231806419e-08  8.1390100260419203e-08  9.2425285953739761e-04  8.7674843428065804e-08  3.4691304858554761e-06  5.9905399263179111e-04  5.6549169361332096e-04  1.1679031388086029e-03  5.5550278784812857e-04  8.3617915254816148e-08  5.6541210209034817e-04  5.6549517472831727e-04  8.1632670887820834e-08  8.4372335945175697e-08  1.9920258198696014e-04  1.0077504128484080e-03  1.4691916239104008e-06  6.0228471775788874e-04  2.2679373986313577e-04  4.9346510241549135e-04  1.1465645267810616e-03  1.1140296302516073e-03  1.3046008157680464e-03  1.0014668218677094e-03  5.6851880043729170e-04  6.0347201045794839e-07  5.8408453812872497e-04  1.0235588076079715e-06  8.3431412002238999e-08  5.6552568985494746e-04  1.6594502968295152e-04  9.7622705825352145e-04  1.1009370630437694e-03  1.7042804012237111e-04  1.1805524678263589e-03  8.7138064682661111e-08  1.3880348982573054e-03  1.0335283045998594e-03  2.9694742217012068e-04  5.5112052936228895e-07  4.0860559739970748e-05  5.4500001040019470e-08  5.6327608703780697e-05  5.6562134498009255e-04  1.1348092616213171e-03  5.9492225347341522e-04  1.8466117949107741e-03  1.1664596835362553e-03  8.5934744146930907e-08  8.8994097364999789e-08  5.6532277219973909e-04  8.2776652715717041e-08  1.6904978003747707e-07  5.6533304225537759e-04  5.6549731455297902e-04  5.6778344224816168e-04  8.1167869492272114e-08  5.6547854517753128e-04  7.3799799260761698e-04  3.9221540075674682e-05  8.3927680379161097e-06  7.3329693398871149e-04  7.4970166665429283e-04  1.3486855066076856e-03  5.6627803851407336e-04  6.9387249050362068e-04  1.5596982572248937e-07  5.6614118950806336e-04  1.1253662752961824e-05  2.8791808843183609e-04  8.4901774761460146e-06  5.6552053180233223e-04  3.0877861408121184e-03  1.5058194230711817e-05  7.2826179288977533e-04  5.1177122914421906e-04  9.6683923429792768e-04  1.1763534608297340e-03  8.8814027698224713e-08  2.5121597224971943e-04  1.0853962720652304e-05  1.5121220024958429e-04  3.6029782165687657e-05  9.9931263913308429e-08  8.1996187312834962e-08  8.2261831219900918e-08  5.6766475516966373e-04  5.6549236232309179e-04  5.6546214399946977e-04  8.3515666464502053e-08  9.5244973920819110e-08  7.4596216232201691e-04  1.9443802195267976e-06  5.9063545787029154e-04  8.3547176655462832e-04  5.6565321278269245e-04  2.8907723379152233e-05  6.9004730876871584e-04  5.6545911721042196e-04  1.2894927389419618e-03  1.2257459890491079e-03  5.8915723435227368e-04  6.7905718333374527e-04  2.9384198400502612e-07  2.1153267556093753e-03  5.6450280871466201e-04  1.2929966877160866e-03  1.7622046360774425e-04  8.7035338321936556e-04  5.7991311173009711e-04  5.6545139430008403e-04  5.7957770198245335e-04  1.4982590757227185e-03  1.0461362947832527e-03  1.5918767393390115e-04  7.9861976280568307e-04  1.4147460916286432e-05  1.2082543618338998e-03  4.4452350680671839e-04  6.6097418508633888e-04  5.6744537063442774e-04  1.1154315066878074e-03  1.5086769293401853e-03  1.7949710137773574e-05  7.7438841407195802e-04  2.0692548999253113e-03  6.4748848774173252e-04  8.0988285298507748e-04  8.6014772740024879e-08  7.2655497242683363e-05  9.1137198536380846e-04  7.4009390995380820e-04  1.1795437383340972e-07  8.4429196335021016e-08  1.3321620057851272e-03  1.0531056508391505e-03  7.3369589558845412e-04  1.2670048827006588e-03  1.7306538515907519e-03  2.1705454303178308e-07  1.9042616379573393e-07  8.8481398410405897e-08  9.3958427221543122e-08  2.3138183808699082e-04  9.8347104132951271e-05  1.0538716262787420e-03  9.5886818909089429e-04  5.6551535233900242e-04  8.5216786482471984e-08  8.6315214239958703e-05  1.3502445494077303e-03  8.9118099303216612e-08  1.1576530967169984e-03  6.1999618962478901e-04  1.3964036301534399e-03  1.1392662282189042e-06  8.4115775160154900e-08  8.5163307018931353e-08  5.9226762801244023e-05  6.2449528516499381e-04  9.8754975619072798e-04  1.7259305212233188e-07  8.2083539332214479e-08  8.1318052425008076e-08  5.6532972008514304e-04  5.6542376652935660e-04  5.6634956986497721e-04  7.1379912669756063e-04  5.7165259602118756e-04  1.3330847769573375e-04  5.1988080193146457e-07  8.3935642761915751e-04  1.3697501036049346e-08  6.0230209374455753e-07  6.5524929971859174e-04  9.5531831024318415e-04  1.5329710082180557e-05  8.0147454012950389e-04  1.0242409471248552e-03  6.2297291581315931e-04  6.4962764908924173e-04  6.3490378094363379e-04  7.7798248605838179e-06  5.6586177569958819e-04  5.6533449587640701e-04  1.2302812824327748e-05  5.7616875166092063e-04  8.9735330797233242e-08  6.7093165185708092e-07  8.3601414275511047e-08  8.1069176033372078e-08  8.6724754547816135e-08  7.4491029462493913e-08  5.1416631713176739e-04  5.6549665124144713e-04  5.6549669776105192e-04  5.6549197016744898e-04  9.5925055047460094e-05  3.6523249129436798e-04  4.2848341596664872e-04  5.6552791253390957e-04  9.4952805988111671e-04  8.3281742812452890e-04  5.6692035593449862e-04  5.7319102243879596e-04  5.6561519071419693e-04  5.7155090265737787e-04  5.0336609635745193e-06  9.3966239246520060e-04  1.3022511937813464e-04  6.4325065494012356e-04  4.1196087423483800e-05  8.4658319749066188e-06  1.2484602679831756e-03  1.7920576979683816e-03  8.8993808874107404e-08  1.0597337918398747e-03  9.0130012581822777e-07  1.1414224137537862e-03  8.9223441600963180e-06  5.6557216892856447e-04  2.4423031930209324e-07  2.1253149918836985e-07  5.6558725386700618e-04  1.0614950172940249e-03  9.5049084936618482e-04  5.9698373216997649e-04  5.2351399973430613e-06  1.7426343376660144e-06  1.2880649936806844e-03  8.1526705850827499e-04  1.0954886947368630e-03  1.3209659616431029e-03  1.1011263129624984e-03  5.7188874693872213e-04  9.6686983516314136e-08  4.0898130910129932e-05  2.1265871759225547e-06  8.4097076242245012e-05  5.5006395991667105e-04  8.7287814358334086e-04  5.6549722199438152e-04  2.9923312068328318e-04  2.7641344201819102e-04  6.7434297930780561e-04  1.8533110216747243e-04  1.2702087200280026e-03  1.5521814421579063e-03  5.5746094865354184e-05  1.1281803590261143e-03  1.0220932402742794e-03  1.4215483015583841e-03  1.6985956667061291e-03  9.1899162246750037e-04  1.2425964172382476e-04  2.7253013868741125e-03  2.7678095569644897e-03  1.1042024612807520e-03  4.8172642861929616e-06  5.6731721006412269e-04  3.9755216532688181e-04  5.7850067891867618e-04  1.1217298909835529e-03  8.7991111108891130e-08  1.1867821176989794e-07  8.6326578143885917e-08  1.5430307069270600e-03  5.1580867610825367e-04  5.6547877254158746e-04  5.6542262204896854e-04  2.9006014860471211e-04  1.7189713657865446e-04  2.2972511178783880e-07  3.2155485181790960e-04  1.2707076233637819e-03  1.1592649733958768e-03  6.1302904390173963e-04  3.8958937308580869e-04  5.6563865962150047e-04  5.6577116114034625e-04  4.0923304091919304e-07  7.0976899997854002e-04  2.4126047908785285e-07  1.0474751437634079e-07  4.0457363998422369e-04  3.1645620385651561e-04  5.6584296485290232e-04  8.1589624417168799e-08  8.1632919672991643e-08  5.6546175660161086e-04  5.6548554378432856e-04  5.6548794880030063e-04  8.2836222608949614e-08  8.2962285060708466e-08  8.2456785459043639e-08  4.3815745248062502e-04  3.5268158385882127e-03  4.8722276382225168e-07  8.1976788400046969e-08  5.6539996011109670e-04  6.0039989452504274e-04  2.6808231886481343e-07  8.5276151181414374e-08  7.5288894698666447e-05  1.3530230335996062e-06  4.2816281480524566e-06  5.6550238916118836e-04  7.5626549481271716e-04  1.5397582930785979e-03  5.6549437713960279e-04  8.4034118685628517e-08  8.2552835350299431e-08  9.6119719259458979e-08  7.5199465323847522e-04  6.4551276948193422e-04  5.7908117067782003e-04  5.6664328262598048e-04  2.3395911819794727e-05  1.8186022695796411e-04  7.3688556768847072e-04  8.6566263570648264e-08  1.5039615396640464e-03  6.7843695710660917e-04  7.7786833338856114e-04  1.0572807588261013e-07  9.5457188218244431e-08  2.4798625723072637e-06  7.3227935972516975e-04  5.7273096733795738e-04  4.0287361374896642e-07  5.8245953392151747e-04  8.4123349241426392e-04  4.6599747940553817e-04  8.9504088304277047e-04  8.5314706443104665e-08  5.9399542585924180e-04  5.6644176545384364e-04  5.6552792487431854e-04  3.2514679153703654e-05  2.5218215298849188e-05  1.6524284581146951e-03  8.5541801065995664e-08  7.7808476735197629e-06  1.1895460611133098e-03  8.4724203582983323e-08  8.2579912801442732e-05  1.1693318030369965e-03  5.5705173421750963e-04  5.6586233893035664e-04  1.4376657018558760e-03  1.2183110224553916e-03  2.3685287214916923e-03  2.2267046795255746e-03  1.1424759260230413e-07  5.6549799059641272e-04  5.6559989570685923e-04  9.5693587193032726e-06  2.3096571571797472e-06  6.3724962455080614e-04  5.6539410819600314e-04  9.3419068862351541e-04  3.1138934710723257e-04  8.3137721725691066e-05  2.9432914092640789e-06  1.1455473708875360e-03  9.0024961905906453e-08  1.2105353872986632e-03  5.8700811341541831e-04  6.3174567804800442e-04  1.0465539071008094e-03  5.6550288351730441e-04  1.2986527042549293e-04  1.0230728917695203e-03  1.3188770792494700e-03  1.2976850198516408e-03  4.4699792743469266e-04  7.1829927996319742e-04  1.7711256687338128e-03  6.2141841805694431e-04  1.4242860551328799e-03  1.0348437245524243e-03  4.8442508114779560e-07  1.2055255376050879e-03  9.0028194764577919e-04  1.2445401056860518e-03  7.0161196059893534e-04  6.1490659073150790e-04  5.9593168818229954e-07  9.2626694518907786e-04  1.0060316539275427e-06  1.2876905670963211e-05  5.7075694723562225e-04  6.5503895047487495e-04  1.4826785016678464e-03  7.2659422451399334e-04  1.0432112675982826e-03  8.7682642337499580e-08  1.8090191242783416e-04  1.4193697934132914e-03  9.8157802089117907e-04  5.6684888959536352e-04  1.7560257939094377e-05  4.0886705467870613e-06  1.3891193244445022e-03  2.3818875416532878e-05  8.2278082763340003e-04  6.1775240137824483e-04  1.9283577338272653e-03  8.1667402772569674e-08  3.6249523743254296e-05  9.0031971491260856e-05  2.5902922956926250e-04  8.2947239770273579e-08  5.6951405356958683e-04  5.7605569285363060e-04  2.9098521390034178e-04  2.2773596235566955e-03  1.1128708963477904e-03  5.6535444941937629e-04  1.3965503316439229e-03  1.1302999571530658e-03  9.4043613059819990e-04  9.5482940046644953e-04  6.8285222961286904e-04  6.3738518685180592e-04  5.7144620234472125e-04  8.6389477709251602e-04  1.1989537616478971e-03  1.1123158221381659e-03  8.7917032591067296e-08  1.4209681000067623e-03  5.6737128532161150e-04  5.6640841397833167e-04  8.3484423910188750e-08  9.8454051702053004e-08  5.7274064377426076e-04  8.6931544320022376e-08  1.0736062165156660e-03  1.1304685545323984e-07  8.4419795921677509e-08  5.6549819921804798e-04  9.9302390914195551e-04  8.4903471762159337e-08  1.0689056499022438e-03  1.8118822235274558e-03  1.1499488832728035e-03  1.1439914553386433e-05  7.7821726822979568e-07  8.2435231350354176e-08  1.1910300828059789e-03  5.6694492443684641e-04  8.1001435479581725e-04  4.7361063166793022e-04  2.7685568433824775e-07  5.7061607284613442e-04  2.5907045061487568e-04  1.8649432206161239e-03  1.4737010574857024e-03  5.7542426562844421e-04  1.3147323958010125e-03  1.1746232702544052e-06  5.7049856284995741e-04  8.3154983251621484e-08  8.3334036312729417e-08  5.9073867103730064e-04  5.7473570671590633e-04  1.0270656527389408e-03  2.4962490528507909e-07  1.2489298815661219e-03  8.3944710411042876e-08  3.7987616993058858e-05  1.2940587622015153e-04  1.7145379341216354e-07  2.3124421738870156e-07  1.0551957388974078e-07  1.1886758580006880e-03  1.0123639296777754e-03  1.3670802163358493e-03  1.2570722588811126e-06  5.6532627631301197e-04  1.1728415559363939e-03  1.0946455181132845e-03  5.6554985265997056e-04  8.6569225607564446e-04  7.9502366027091298e-04  2.6869824112025619e-04  1.3775928764499078e-07  1.2392103847357228e-03  5.6591302449358330e-04  6.9898970358053879e-04  2.2274703271671429e-07  3.1270587914351480e-04  8.1991406939902641e-05  1.1138222124033222e-07  5.6346708381594112e-05  7.4804417105816016e-05  1.1928299018672552e-03  5.6549672062308081e-04  9.3390302284489474e-04  1.2052911085530129e-07  1.5927795907215116e-04  9.6178796116356353e-04  7.2395892470311934e-08  8.1137026648550148e-08  8.1523839920135300e-08  5.7580336444100759e-04  9.6158026157554026e-08  5.6564184455117517e-04  5.6551353706052563e-04  1.4665072851425744e-05  1.1453061998989598e-03  3.3332482426055015e-06  8.3678041154817842e-04  6.0655115177997376e-05  9.1942282205758144e-04  3.1396858182420847e-05  5.6549605761226193e-04  5.6589928542157572e-04  5.6539025725179607e-04  5.6541943779147663e-04  8.9259392649450453e-08  1.6426298212674212e-06  8.5032045693708659e-04  1.2349388700639869e-07  5.6766103357277597e-04  6.0016286842745430e-04  7.4451753004678179e-05  3.0121999002789230e-05  5.9488143149663292e-04  5.6549222001438867e-04  4.7593063268606516e-04  9.5314589537331875e-08  8.8220197800596833e-08  8.3597140345332509e-08  1.4886644751077373e-06  3.3248038553226237e-07  3.7755649545934360e-06  2.0585126468925161e-04  3.6196626217633405e-04  1.3478814292856660e-04  8.1369933316408167e-08  6.3715394179830092e-04  8.4328077401724447e-08  6.0829667546298451e-04  6.8703686557862898e-04  6.0447025908510362e-05  1.0200457144872758e-03  9.2458132216481962e-04  2.6116367262849811e-04  5.8734584801047800e-04  8.0924113828330032e-04  1.4296093816719560e-04  1.7540966644424144e-04  8.2014644201253046e-08  5.6548049423243518e-04  7.1088926732163480e-04  1.4721798296578568e-05  6.2616999210681975e-04  5.8138232222076393e-04  8.2403468426937551e-08  9.9319787982224926e-04  3.0481754980888568e-03  1.1933127669541753e-03  8.4590755318483043e-04  8.1588960482639536e-08  6.9877699705793819e-04  5.6519358488605698e-04  8.3733269573199394e-08  5.6543903768812187e-04  8.6844996198382031e-08  5.6305199725092059e-07  9.0789818916414190e-04  8.0048834389863507e-04  1.2184435505837228e-03  1.1103528566980309e-03  4.5855605452522981e-04  7.7339893868968741e-04  5.9795491082937789e-04  1.2649834411405231e-03  1.1765626846945605e-05  1.5775274377225541e-07  6.3481675479388458e-04  1.2555262860862034e-03  1.4374389694065557e-06  7.1953660574985312e-06  2.7018874908747161e-04  1.2564991575283967e-03  6.4016633984443337e-04  7.9809543899631160e-04  1.2280342305253978e-03  5.8645441335947689e-04  5.3814350748288638e-04  7.3037865786150887e-06  4.6485655401432019e-05  5.4196153551463822e-06  7.6496334180648588e-05  5.6667966953968623e-04  5.4495935599395483e-05  1.2339340393956196e-07  3.8846987097044838e-06  5.3697693634361624e-04  6.4419836547813749e-05  9.6575564938072657e-07  3.0150978670653149e-07  1.3966627071850661e-03  1.2790160213736687e-03  3.9782020131432709e-04  5.7032197187725526e-04  5.5473928702083099e-03  1.0517271278584108e-03  4.8251374057247356e-06  8.8773191026991011e-08  5.5706401183492433e-04  8.2900968159061576e-08  6.5620564869694196e-04  1.0150442839083921e-03  1.1244260674451549e-03  3.8939595646501917e-04  6.3828560326455999e-04  2.6647072423523746e-05  6.8281145935445667e-04  6.0906697318170028e-04  1.6964319680899536e-08  2.0974992110777290e-08  8.3468064280062249e-04  8.7183032122449496e-08  9.0296468278391862e-04  3.4090004181360791e-05  5.6548640799120400e-04  8.1327700312552970e-08  1.0589552685027340e-03  1.5037237694274187e-03  2.5680080461727496e-05  2.9066320551597981e-04  7.9854870093985808e-04  2.0958292512268111e-06  1.0671244214421503e-03  2.0640216765250616e-07  8.2612040844960455e-08  8.3687901507575546e-08  1.6367685278942265e-07  7.6595200151785050e-06  2.5939559776060146e-03  5.6563189197500366e-04  5.7623071198376129e-04  5.7801114885521572e-04  6.8574838494343674e-04  1.1177749090238887e-03  8.5125903970296063e-08  1.0081396307889206e-03  1.5403582832982641e-03  1.2380834640400285e-03  2.2874128225229342e-04  1.5246352632291090e-05  4.9781241431767214e-06  5.6548766682670100e-04  5.6557668393288920e-04  6.7076277567119957e-04  5.0555236868174895e-05  8.8091865586704153e-08  1.1080037875831901e-03  5.6646852169828276e-04  1.1362646874142088e-03  5.6537941520476095e-04  5.6533459074378995e-04  6.1974873471710198e-04  5.6549711959819060e-04  5.6554581305262672e-04  6.3771610017661381e-05  8.4714725510904091e-08  8.5559781591140290e-08  1.5386316182656377e-06  6.3837889584402892e-06  2.3200430371150248e-05  5.6539589260763733e-04  5.6548015950643815e-04  5.6549592188148657e-04  5.8583981586962414e-04  5.6234376416611860e-04  8.9058431636854193e-08  8.3996612244413663e-08  5.6549421464032747e-04  5.6532428475731655e-04  3.0979798721888301e-08  5.6545637070308898e-04  8.1233399718952131e-08  7.8579657731497977e-08  8.6368231923813189e-08  4.1430186351909618e-06  3.8732165844093680e-04  9.4553945842344527e-04  6.7133267579533328e-04  8.6842691240927199e-04  9.8386221842404475e-04  5.6549729277239485e-04  6.8839227158022220e-04  5.4593628854170411e-04  1.3790389223816395e-04  4.5770086678160495e-04  8.1105548547531825e-08  6.2754552658036411e-07  6.8996619787770844e-04  1.0062699679260951e-03  5.6629822188589726e-04  3.4506627495662866e-06  6.1177109054448954e-04  1.0226811436589874e-03  2.1164718132850231e-03  1.7032082855483919e-03  2.8170867501408882e-04  1.1450835932418654e-07  1.6514921556191422e-03  6.1500877291387917e-04  5.6552732047951708e-04  1.2665429647305212e-03  2.6422798983438715e-05  5.9787859306317944e-04  5.6556603826093640e-04  5.6549980372068605e-04  5.6554381141587303e-04  5.6583973039636888e-04  7.7698229324135151e-04  1.6914827942708470e-03  3.9018039781039456e-06  1.2778586485127259e-03  6.6501630238942778e-04  1.9980919028618572e-05  1.9456775179808217e-03  1.9716878183857606e-05  5.6570844516909500e-04  6.5549293333951476e-04  1.4383129906077347e-03  8.2235291269939148e-04  1.2474738535371204e-03  6.0306103095503585e-04  6.8751216779938329e-07  1.6290978091486952e-03  1.6174562077451414e-03  8.5491531941149757e-08  1.1695054064550559e-06  1.6188415656198556e-03  4.6959046106521989e-07  1.2270013485337753e-07  9.6912694198605898e-04  8.9039750606598211e-05  4.3670291550507444e-04  2.7911254648696693e-04  4.9125496082495215e-04  1.5946514766885237e-04  5.8219875204584641e-04  5.9075964206016941e-04  1.0637791655863133e-03  1.7352152504816279e-04  1.0248366059833496e-04  1.3926170066226720e-04  7.0565679903905664e-05  5.6717277753445046e-04  5.6550674572363531e-04  7.6663171460209477e-04  5.6838885145798731e-04  7.8126481479996108e-05  5.6582757263171979e-04  5.6553612202249286e-04  7.3031418428940961e-04  1.6246180788011892e-04  4.2572039478640776e-07  1.5315850809958499e-07  5.6549693352987848e-04  7.4371931646255755e-04  5.6681800553166613e-04  5.7103713924999439e-04  5.6673202181834349e-04  7.5857399569851855e-04  8.2851424252145583e-08  6.0860853006700294e-04  6.3788087797075573e-04  5.6571466642551984e-04  5.6551501668962347e-04  5.6549631358934847e-04  9.0832344629132350e-04  8.1071426400115539e-04  9.1791455763282631e-08  1.1426332965217165e-04  1.1715548216810937e-07  4.5194220886418288e-05  9.0867522939346457e-04  7.8755325600344010e-04  5.7007725095367147e-04  5.2714349409542732e-04  8.3677213068076985e-08  1.0058017535743890e-03  8.9627746073168141e-08  1.0273668213395474e-03  1.7255177190288302e-03  8.4251274142967679e-08  1.0649683776019691e-03  1.1834212460646227e-03  3.5840325418730703e-04  1.6149961988098963e-07  5.6537225981009626e-04  5.7933997826571334e-04  1.3607380748180847e-03  7.8220640330950257e-04  6.1037120749715776e-04  1.2351962451697344e-03  1.2328612767301425e-03  5.8126970687138373e-04  8.1963392776723823e-08  3.0906578885638233e-06  1.2345972346743640e-03  6.3402915214970823e-04  6.2170734964281762e-04  5.6572484417644097e-04  5.6544981163888304e-04  9.7762705579464109e-08  5.6536670642008300e-04  2.1641158553901968e-07  8.2230541606464373e-08  1.1386033358862140e-03  5.6559997935523836e-04  8.5956677053706905e-08  1.0166898702094456e-03  8.3219735535441136e-08  1.1344831229661684e-03  5.6545864137827083e-04  5.6547733064037759e-04  5.6549120957242462e-04  5.6545480928865655e-04  2.8765538877485