<?xml version="1.0"?>
<VTKFile type="UnstructuredGrid"  version="0.1"  >
<UnstructuredGrid>
<Piece  NumberOfPoints="6486" NumberOfCells="12696">
<Points>
<DataArray  type="Float64"  NumberOfComponents="3"  format="ascii">0 2.5 0  0 0 0  2.5 0 0  2.5 2.5 0  1.25 0 0  2.5 1.25 0  1.25 2.5 0  0 1.25 0  1.25 1.25 0  0 0.625 0  0.625 0 0  0.625 2.5 0  0 1.875 0  2.5 0.625 0  1.875 0 0  2.5 1.875 0  1.875 2.5 0  1.770833333333333 0.7291666666666666 0  0.7291666666666666 1.770833333333333 0  0.9375 0.625 0  1.875 1.5625 0  0.642361111111111 1.163194444444444 0  1.341594827586207 1.883979885057471 0  0.46875 0.46875 0  2.03125 2.03125 0  0.3626104797979798 1.513178661616162 0  1.381740196078431 0.4564950980392157 0  0.9375 2.172619047619047 0  2.172619047619047 0.9375 0  2.096354166666667 0.4036458333333332 0  0.4036458333333333 2.096354166666667 0  1.684027777777778 1.163194444444444 0  0.3418803418803419 0.8693910256410255 0  1.642742622813391 2.162164207604464 0  1.275619849389031 0.8465650753054845 0  0.9136284722222221 1.434461805555556 0  1.732437511238546 0.3406962303960658 0  0.9714402568595876 1.029779313093998 0  1.52281746031746 1.485615079365079 0  2.1875 1.71875 0  1.06819722569879 0.2997236128493951 0  2.136114211309524 1.303478422619048 0  0.3125 0 0  0 0.3125 0  2.5 2.1875 0  2.1875 2.5 0  0.3200021620376328 1.192323085056694 0  0.6738456129277992 0.8304377375553881 0  1.757891808928991 1.861952730357003 0  1.5625 0 0  0.9375 0 0  0.3125 2.5 0  2.1875 0 0  2.5 0.9375 0  0 0.9375 0  0 1.5625 0  0.9375 2.5 0  2.5 0.3125 0  0 2.1875 0  1.5625 2.5 0  2.5 1.5625 0  0.7448220909826522 0.3003573636608841 0  1.027298850574712 1.871151477832512 0  1.331260495098891 2.197262878816185 0  1.207917681892289 1.582765010956622 0  0.4339993447432606 1.801186844743261 0  0.6337298768939392 1.443093039772727 0  2.049851190476191 0.6826636904761904 0  0.6584821428571428 2.219122023809524 0  1.89575676467455 0.9798457973793544 0  1.437570562095628 1.059380588255917 0  1.502090052505845 0.6987070896496241 0  0.2040860661083546 1.705323965099331 0  0.2083333333333333 0.46875 0  0.5070952039991439 0.2211150679997147 0  0.6916302856529919 0.5813591430410241 0  2.265625 1.953125 0  2.2265625 2.2265625 0  1.886424081252096 2.243391360417365 0  1.40625 0.202164758520858 0  0.2269345238095238 0.2269345238095238 0  1.152730869673694 0.5225850378741401 0  1.885631899587912 1.312095130148776 0  1.614808884009367 0.9049784971014416 0  1.890095442220658 0.5126535558463003 0  2.323168682795699 0.46875 0  2.268811725689575 0.2304742875213018 0  0.6002389442105756 1.967426444210576 0  0.1768313172043011 2.03125 0  0.2311882743104251 2.269525712478698 0  2.03125 0.176831317204301 0  2.280262553344767 0.6954945504579233 0  1.979219539285994 1.809922269642997 0  2.336309523809524 1.09375 0  1.09375 2.336309523809524 0  0.9314042474388009 1.662973812215543 0  0.1634067999087722 1.40625 0  2.337090640094896 1.40625 0  1.141616997467638 2.069311773587991 0  0.46875 2.338939559681489 0  1.542440307908715 1.734944797244472 0  1.556713687786879 1.956977865354753 0  0.8264238995344066 1.975424467820646 0  1.466326331454725 1.275271369760862 0  1.655675324257095 0.5444159974393489 0  0.3385416666666666 0.6479255698005697 0  0 0.78125 0  0.5236073939200119 0.984090461540625 0  2.091665741047893 1.519793517904215 0  1.71875 2.5 0  0.5356538886262603 1.623137930505009 0  0 1.09375 0  0.1932884281517095 1.015625 0  0.8569313582417669 1.2198915584249 0  0.8876981284879677 0.8329884081524883 0  1.115618488474214 0.7219586973356271 0  1.186950366204949 1.043465130075318 0  2.057459118787237 1.110823087309335 0  1.830651283878689 2.049810069572418 0  1.689107969301489 1.367247437031697 0  0.4921048768039656 1.298643370653124 0  0.8213975694444444 2.336309523809524 0  2.03125 2.5 0  1.049729400480002 1.283723261332814 0  1.308101375801673 0.6489479469700392 0  2.5 2.34375 0  0.4968777175037714 0.7562964879736076 0  1.40625 2.5 0  1.501347663534097 2.307027627307738 0  1.602813712048603 0.1926218191360736 0  0.8393082906308107 0.463778306132633 0  1.682663349152719 1.598471865581041 0  0.7774174680851571 1.560004941327907 0  1.554204170364662 0.3898593897892066 0  1.842184459051087 0.186443880058197 0  1.358107417651776 1.696381759610015 0  1.18859291992392 1.77598670078022 0  0.1875331222687418 0.7609599743339348 0  1.339536743965101 1.422080365801479 0  0.7788179348750389 0.9955343414928611 0  0.9062978492805438 0.1919636509126373 0  1.256007360640958 0.3160320559396114 0  1.09375 0 0  1.174986727221844 0.1594990293443933 0  2.34375 1.796875 0  2.318026474511116 1.589177949022232 0  2.34375 2.5 0  1.672742954892153 2.332882724550692 0  0.2683637361947215 1.874801596909639 0  2.174770749820102 0.5581009131310781 0  1.443279522965991 0.8870068372898454 0  0.3385416666666667 0.3571428571428572 0  0.78125 0 0  2.060421048269335 2.314363248763811 0  1.088078737088509 0.8967352118723447 0  1.087825368444708 1.454931510884769 0  2.018308232129541 0.8548495425854904 0  1.943987311736842 0.3246298523011434 0  1.71875 0 0  1.85337849796276 1.144833312386208 0  2.3486328125 2.1044921875 0  1.407588788651747 2.042968789119587 0  2.336309523809524 0.865366648092144 0  2.34375 0 0  2.5 0.15625 0  0.15625 2.5 0  0 2.34375 0  0.1638044648294291 1.242263417405867 0  0.356216654757926 1.032569427322806 0  0.3188217956111817 1.355736727000647 0  0.5924956460852111 0.36112522004736 0  0.6594216488965849 0.1603472116132387 0  1.841804599497131 1.72214349266521 0  0.15625 0 0  0 0.15625 0  2.115898634821499 1.894570904464496 0  0.7821877980253907 0.7129993435924866 0  1.003820447087786 0.4516053462784233 0  0.477562948779147 1.138333049293613 0  0.719493678605015 1.305655360135975 0  0.9772457618587566 2.020350128938537 0  0.8764738248887107 1.826219722709673 0  1.254787875123819 2.339010653832026 0  2.343597354852534 1.249982759769001 0  0.78125 2.5 0  0.46875 2.5 0  2.5 1.40625 0  1.09375 2.5 0  2.5 0.78125 0  2.5 1.09375 0  2.03125 0 0  2.5 0.46875 0  1.40625 0 0  0.46875 0 0  0 0.46875 0  0 1.40625 0  0 1.71875 0  0 2.03125 0  2.5 1.71875 0  2.5 2.03125 0  2.005424054645407 1.653223486966518 0  0.1538730573856537 1.559850281736677 0  2.33984375 2.33984375 0  1.166539506212474 1.922878979538754 0  0.3914885633949916 1.65887232812171 0  0.5795503163042564 1.766243562569382 0  0.399533125920212 1.946786875081388 0  0.7866324979014098 2.127719094551316 0  0.3654683023546834 0.1495701132219454 0  0.1527388747131078 0.6116379440619215 0  2.013737577140188 1.391056634712135 0  1.17635437372994 2.213329084238133 0  1.737118141866284 1.010577140843115 0  2.200707118087222 1.164723314085963 0  1.697018908736685 1.993548551451517 0  0.5387621649009668 0.6070503962352419 0  2.032805785855952 0.5330427622570983 0  1.082699501358059 1.667818725183932 0  1.503819781540653 0.5468420196858188 0  2.015409142866072 2.175941657590429 0  1.752057611265444 0.869642097111018 0  0.612251684107783 2.356045720700959 0  1.902817102342857 0.6607642211999982 0  2.159616561739693 0.7867739969338844 0  0.5120038350106624 2.197302352398502 0  1.888200216011548 1.919501662489862 0  1.495909909726654 2.16028358757309 0  0.489139876703609 1.443203008943564 0  0.8819175670410521 0.3301172743913011 0  1.882591144370812 0.8155965192707721 0  1.133979796994841 1.172526771862882 0  2.206217447916667 2.084147135416667 0  2.20361328125 2.36279296875 0  1.395746985657004 1.556054166359645 0  1.704383111516207 1.734750450338683 0  0.9575737847222222 2.36274223823052 0  1.035150984253136 0.1302833343179028 0  1.383966125325753 0.7651479963479179 0  1.64003252158672 0.6824316405528895 0  2.22550785055421 1.487078576356817 0  1.760964431499756 1.48495222505201 0  1.276460980673788 2.004207003584658 0  0.1341477688427096 1.828777507920502 0  1.542261434180652 1.155296658359034 0  1.334627911613854 0.9696897472490321 0  1.30794231473696 1.119420615785191 0  0.7028260459857245 0.4438906910721139 0  1.625757433094055 1.84268057552138 0  0.9818707849053143 1.165603626132254 0  2.0086489901463 1.243134585689553 0  1.934584460420609 2.374094051915812 0  1.798434376789567 2.38671361912528 0  1.206314791201715 1.382064292497919 0  0.6333752893366955 0.7023738550008095 0  0.7796219811205605 1.42573253164258 0  1.564399711917382 1.026040828857629 0  0.3385416666666666 0.4889012896825397 0  0.1041666666666667 0.390625 0  0.989112246382566 1.543537365516289 0  2.025724425454636 0.9846960595520872 0  0.6602885475034063 2.086117390485779 0  1.607130551925032 1.267198646640915 0  0.1317864544877056 0.8896173683400176 0  1.755387840017567 2.230364320056445 0  1.301540702984401 0.1216289692748247 0  1.433170657577442 0.3331052752740999 0  1.500459610550388 0.113513924782439 0  0.6494291520606965 1.029586599619295 0  1.010146149868299 0.794897284196169 0  0.3700844198238017 2.235390157870766 0  0.3360891767780704 2.36656279435396 0  1.876856241037701 1.437150669863757 0  1.778674102957329 1.245979347269706 0  0.5472829890977179 0.1005517127039925 0  0.4669074189005698 0.3416784232954367 0  1.472765289289269 1.850899166481903 0  1.555853593327178 1.608452097912802 0  0.6708955559113426 1.646561631116984 0  0.8164699620322933 0.5924479455478063 0  0.3167738989468366 1.758696809749795 0  0.2788007305565096 1.605499483471246 0  0.7821720982350511 0.181524936294752 0  1.376812251214195 2.313340247908297 0  1.785652202614777 0.5962261755537186 0  1.761467296310972 0.4679567244718574 0  2.2265625 1.8359375 0  2.3828125 1.9140625 0  0.5279531607054191 2.071552361614785 0  2.397573269551114 0.234375 0  2.383578172599618 0.3589298466020009 0  0.1024267304488855 2.265625 0  0.1164218274003825 2.141070153397999 0  0.2696857594953064 2.135405441512016 0  2.164961300137334 0.1375322943529536 0  2.137757548369486 0.2724194778647587 0  2.238873711826398 0.3626419179496562 0  0.1001414910226386 0.234375 0  0.2176339285714286 0.3478422619047619 0  0.2503620791333544 0.1061694061057066 0  2.336445461915368 0.1250451055247424 0  0.2154004640409726 2.3918124
[...]
<PointData  Scalars="f_49-1"> 
<DataArray  type="Float64"  Name="f_49-1"  format="ascii">1.9060663283530495e-18  4.6789501999744867e-06  1.7523104314659439e-27  2.2232304781952054e-25  1.7867719880476351e-11  -3.8524202752723542e-24  1.0859017336044868e-18  1.4614570070274392e-05  6.2292827284248834e-06  8.6516948211406294e-05  5.3042664710493354e-07  1.1946775360973193e-18  1.6267228669038588e-10  -1.0487159260837093e-27  -2.7191862489324790e-20  2.0172417925787432e-22  2.9157028493900772e-20  5.6547060541407840e-16  2.7939564787067488e-09  1.3781475114715788e-05  1.5618148637342770e-12  1.6180158371056078e-04  1.6670840735246781e-10  7.4912857688893251e-04  1.0910421428170130e-16  4.5794791607360786e-07  3.5161036020592653e-12  5.2022781043728175e-14  6.7085720529934380e-21  -4.1039142027880642e-22  4.8259382017807992e-13  2.4746815414040252e-10  1.6222001907287149e-04  7.3777161026821399e-15  5.9163512168615747e-07  9.4363614773811215e-06  3.4673817119799940e-17  3.5053292380270526e-04  1.1107956354617257e-08  3.4146119607481228e-17  2.3509144935854148e-09  8.8495064260822550e-17  2.1594369503850587e-06  -2.9306753668613270e-05  3.0413669116520385e-23  9.4502533971978570e-23  2.3745625106229133e-05  2.0886085703723575e-03  5.2769297337593472e-13  -6.8384546348093925e-17  1.2632124272332690e-08  3.7701760597136106e-19  2.2130978908577348e-24  1.9153171214606890e-28  7.4143177570717148e-05  2.1505266889167489e-07  7.1664731585013436e-19  6.3755499654012461e-28  3.4551581144869157e-14  4.2461640834547848e-19  2.1651326095116102e-22  1.7015939858331969e-07  3.5926577036283680e-10  1.7586276272353933e-14  2.0103199476649248e-07  1.5640613884364478e-09  2.1091513422104436e-06  1.6225146506046961e-20  9.3729401842204275e-15  7.4043894149602920e-16  1.5902175712038456e-07  -9.6743731294784058e-13  1.2730786437329647e-08  3.5193768696319314e-03  9.7144790519425658e-07  2.5159674071476181e-04  4.8450830997993289e-19  2.6253226796397816e-20  1.5967172913725745e-17  8.8073136245249881e-13  -3.1268360342772994e-05  -2.7829213421970570e-09  6.6174663544110925e-13  7.8528196995143544e-11  9.0900409411195177e-19  -2.8812759789905268e-25  -3.2437723478649602e-25  2.2833817846521666e-11  2.1003787098989557e-12  1.0682510744611267e-15  -1.1298913818707058e-21  3.7286920453058963e-24  8.8460259175268523e-15  -2.3799371907011517e-22  2.4562660921833053e-16  5.7564945560474017e-08  2.5526049189106889e-06  4.3133754672808689e-20  1.2502123827086710e-12  2.4211182019769867e-16  2.6285841787621786e-10  2.7008023284409309e-12  1.6054361937996696e-11  1.1648945203630042e-07  3.1803079418435736e-15  1.9319831819345345e-03  8.8943257979752028e-05  4.6370041483225247e-04  7.8546415468382128e-16  1.9440508436326647e-19  5.7531434372691413e-08  4.1532482417026792e-05  6.2328040468656221e-05  1.9011743021828093e-04  4.4503532519790548e-04  2.6294715284958074e-06  2.2150832573137619e-05  3.2640214960682726e-17  4.0718983128729763e-15  3.7308012846855128e-10  1.0347960850873343e-05  2.6655720591625370e-16  2.5213472363208071e-21  3.2324963705488401e-05  -1.6367524701756245e-09  2.7016396438957459e-24  2.3616294960040196e-03  7.6648047230699306e-19  3.2643035049695175e-16  5.5600590712911496e-16  9.4814094548461312e-08  1.2232679600661503e-10  3.3207971463983817e-07  4.5007572148239634e-14  -1.6960941674302394e-19  7.7140107312216251e-09  4.5579880731465878e-09  9.5733087458885335e-05  4.2292108839643668e-07  1.2586247412997424e-03  2.4320417434544961e-08  5.7281276043621222e-11  8.7877715639614706e-10  3.4026020444805444e-10  1.0203833164265597e-19  2.8815599477440831e-19  4.9201288602483183e-24  4.6105014733186001e-17  2.5532666505986494e-10  3.7181597444661522e-23  1.5820600681882792e-08  7.7098868688794562e-04  1.0167558954904316e-07  9.8230121749264869e-20  4.7933142148088727e-05  3.6522264797451586e-06  9.2428356032669398e-19  -1.6867174875287729e-20  -1.0688339319599977e-17  3.4694218956212823e-13  6.8098219824738454e-21  1.2045759995279729e-12  1.4804673876122985e-24  1.5631217542662127e-25  4.7198201106579970e-28  6.7721769701635909e-19  1.3751521225305265e-16  1.4099026939409515e-05  7.0400728397307927e-05  4.4785274799899298e-06  7.9297027718952610e-07  3.6160564377588514e-07  7.0608625480910442e-13  3.5114534076793935e-06  2.8445979720047511e-06  7.0371658366961236e-17  4.3710294459949934e-04  1.8455511001273215e-09  5.8668353009942629e-05  3.4448054316590132e-05  5.6157432452190939e-12  9.9206936636143158e-10  2.3592787216162517e-16  4.7707845060989494e-22  6.1736017315023492e-19  2.9872404951749672e-19  2.6304808894032316e-23  7.5928976573279323e-19  -9.6353752467356076e-28  1.0650868962315991e-25  -9.3163180025408238e-22  3.4322405203758041e-28  4.9481409554688220e-14  1.2657228267940519e-06  8.5662274525307347e-05  2.8854619060788789e-06  8.3915765599856828e-09  4.0697513343210698e-12  2.9077001466424727e-22  1.1687198060150973e-22  1.6681269366443646e-14  2.1817437677199064e-07  2.5521598144541584e-22  9.8574237593479005e-11  3.8549030167851331e-08  2.4205204890603288e-09  3.5814440326860730e-11  1.8001530105146196e-13  1.8438542617039439e-06  1.0964417527165855e-04  1.4149430210384401e-14  1.8852665631487455e-14  5.1990428475962096e-12  4.4993505082505919e-20  1.7023077980753562e-13  1.7704424099389531e-03  1.0469323884608379e-20  7.1283685075070995e-08  2.2521671512757167e-13  7.7133618746073907e-18  -2.8163263516167682e-14  9.4391469235797455e-17  2.5088412896623632e-18  2.1443605551263469e-22  2.4428020104666374e-14  1.2501172888930345e-14  2.5386288102948613e-14  1.4848727906211684e-06  3.0558760720170393e-08  5.4779694432668794e-17  4.0798117335826796e-05  4.1183430578451109e-19  1.5038898533795056e-21  3.1181267439629802e-08  1.1309357236712553e-11  5.6053541178107997e-17  3.6794618826595525e-09  2.4003112460492261e-09  -1.4017739541190129e-14  1.0176393064334984e-17  5.0029566345087992e-11  9.0759437991935138e-12  9.4869735740809476e-10  1.4051821381273566e-08  5.9278689714868580e-07  2.8237246587738968e-06  8.5654398282553815e-06  1.0866989236145231e-11  1.9017689431261047e-04  7.8791665935857771e-15  3.5290102808798308e-19  2.0266124757589632e-18  3.4843205992329829e-06  1.7917602323035166e-03  5.7322665946856705e-06  3.4073935439804636e-09  3.3566528525289159e-03  1.9559166577779881e-03  1.0795796689691545e-06  -1.0630544751131142e-17  5.1546270535081262e-13  4.0841392592307559e-09  8.4651785481928632e-05  2.8571027111375930e-16  1.2202921849199362e-11  1.0695585105813997e-12  8.4055495951956244e-15  7.7044955638912508e-04  5.8019213526156610e-05  7.7638742094561858e-15  2.0578102133147973e-17  1.3978716665849298e-12  1.7333653524325613e-11  7.7691790451437989e-07  2.1401494079432705e-05  7.6152114903848761e-11  1.1322006064485165e-09  3.2867450339778456e-08  4.7813391675077907e-05  4.1680946428776408e-09  1.1086556718051644e-07  1.2069358933967096e-07  2.8062609978394668e-16  9.0199758229209916e-17  7.8041570892042995e-17  6.3522143150955581e-18  1.4509039839620149e-20  1.2593344885319850e-12  6.0992812214885762e-27  4.7116592632184350e-27  2.9227487765955223e-15  1.7592245814368249e-13  1.5872494032034493e-13  -2.5217550021939133e-23  -5.9873793547573219e-23  -3.3955356162798858e-24  -2.6912462400128313e-04  3.8570120102852678e-03  2.6197034745328093e-06  5.5654407805488184e-26  3.6381550783734052e-17  1.3972144231185853e-14  3.6250944493498012e-06  -1.1253118936938560e-17  2.9485117969988915e-07  3.9274941040633900e-10  -2.6983483591218377e-11  1.3223458444054060e-11  9.7968654372826416e-10  4.5845811541398595e-04  2.9263519878150984e-11  -1.0590394815774383e-20  -1.2047126279129451e-25  7.2518237589639809e-26  3.8368416010893683e-22  1.7577813826851672e-04  1.0144923708211542e-10  1.6868420564940006e-10  5.1427969121121208e-11  3.0986781394759045e-17  2.0387032604862230e-08  1.7350130868387593e-18  8.9458549933444319e-04  2.4567854207047048e-08  4.5764502944600674e-09  2.5817584409050932e-22  5.0820726436726483e-08  -1.3733292356113334e-20  1.7346582144295136e-13  3.1356082542957166e-05  2.5264082229737564e-24  8.7152892694983508e-05  2.7906892440464319e-05  1.2437093753287635e-15  1.2654809257910319e-15  1.4576303776360843e-20  1.6476944576418040e-17  1.1008641326201688e-06  6.9532117659239173e-06  2.9230474279496391e-21  9.0899445176109317e-19  6.6733074747420769e-04  -7.5682517994689947e-17  1.2846478784603625e-13  1.8298408905819900e-16  -1.0546245493579714e-18  8.2623619063319720e-21  1.4499814906856583e-13  3.0891015660681955e-07  1.8905171659357706e-17  5.8387450555751787e-05  3.0261745648698800e-04  2.9223533950464235e-03  1.8827063391593589e-03  2.4340811406391242e-15  5.1125434875044832e-08  2.5412570637967763e-05  2.1388498976690881e-22  -2.2765117226460730e-23  1.2401429482856350e-17  2.3540900307382475e-17  5.6290169057821184e-24  6.9773022313256452e-14  2.3316909256867445e-16  -9.4640750676974425e-13  3.2879662587218655e-21  5.3975037908936091e-14  8.2709528003703918e-15  1.1663191224884366e-12  7.3164487141796316e-11  1.0884270567326256e-06  1.0325511146438602e-06  -5.2625143391820634e-06  8.5592801826651425e-19  3.1284568646300813e-09  1.2319566973502345e-04  9.4912994859888422e-06  4.7042178301922209e-18  1.5460809026604273e-03  1.4055707255484519e-04  1.0846314204995592e-03  2.6548419837809972e-04  2.5437312936619248e-19  3.8334778984722013e-05  5.6973548033405667e-09  5.2533933935555823e-07  2.6344822797563690e-11  2.7851235221977132e-13  6.4275928290415876e-23  9.4567758978261125e-07  4.3431459169838618e-11  4.4215185652394492e-07  7.3798778276612774e-15  8.5123614660671310e-05  8.3065135180203050e-04  4.6541327122273827e-18  8.1650152172780694e-08  1.1467141495370602e-15  5.7123220781386460e-19  1.5966916412494517e-05  8.4217712859610002e-05  6.5136799711970549e-05  2.2176111986467769e-15  -8.7474684532342993e-19  1.8906983840720840e-07  3.8137031575569102e-17  2.0887746606951312e-17  2.1537644751067107e-07  2.0527106272351637e-03  1.9433560239192146e-26  1.0381941136680938e-08  2.3817683033658201e-07  4.2335742971055308e-06  -2.3440838446421377e-23  1.1960644291931392e-08  2.3332502122636456e-07  1.5351585904429596e-11  2.8226735218610907e-03  2.0916111153480811e-04  6.2210486076383686e-19  1.4875436556219982e-05  1.8268011736838945e-11  9.1077727863759664e-14  1.7868925429164543e-15  5.3080065374495298e-06  1.9079213486058043e-05  3.6106130652168013e-10  8.7161257205267352e-12  6.6655665036581595e-14  1.3876069324404633e-15  2.2852081273924286e-07  1.0208689177301840e-06  1.1671862478712445e-17  7.3349896106158489e-16  -1.4597681249839085e-21  5.1163917420944466e-11  6.7147643059826541e-12  3.2258102866516496e-13  4.7765310202922001e-13  1.7302630273155617e-07  -9.4809538762532471e-25  7.6832428876516540e-09  1.2327343367814138e-04  -4.0394638861816885e-19  7.6676747452880758e-23  1.8053461605306402e-03  1.3439049080726856e-10  -1.4008278749543865e-10  1.0414240821497409e-08  8.1045196003101048e-25  3.3618400606380252e-08  4.3303977052082248e-05  4.5334859003862060e-15  1.5739872136730362e-20  6.5061446677070064e-23  3.9932227218597363e-19  1.4342124120260288e-05  1.5887122708088922e-03  8.6486245866622490e-06  8.8852279738050021e-05  8.8067065577569766e-10  4.2226491079624711e-14  1.0667062879334008e-05  -5.9724178631627884e-23  -3.7874949272498104e-22  3.6632695554766910e-06  1.4876660281184706e-15  2.1022108362718259e-04  2.9435218339614220e-14  3.1025008960289409e-04  -1.0468324283305350e-20  -1.1496576644797563e-07  2.8739042511457244e-06  3.6111060050559238e-10  9.0151907154587480e-12  8.7958906157239174e-12  2.0580205337552961e-09  4.3231204654165615e-10  4.7796899804951535e-08  1.2491446510631096e-06  1.9497340332253208e-19  1.2202492227811297e-18  3.2325002243187435e-20  1.1838119847092162e-15  5.2728774561042855e-05  3.1232023571899368e-19  2.2429058093127996e-05  1.4601580645042173e-09  1.5094419585472767e-04  1.3179523767600134e-13  7.6303402533803286e-07  3.5007835453978987e-13  9.8052673676608560e-16  3.0948254249818098e-09  1.0397700391292150e-27  2.4820969810762312e-19  1.9169822879605496e-13  2.0560468408048926e-16  1.1498504740907687e-10  7.1843167051738868e-18  9.4714698045124385e-20  1.4729115867630285e-09  1.6795781666448011e-05  1.5518256787101053e-06  -1.9648873935088162e-28  -1.6930870730078728e-26  1.6732944755581558e-17  1.3307192631300008e-08  6.0194451540410869e-10  1.9564686142818129e-09  5.9073529795595515e-14  3.3813390585768460e-20  5.7316938789652368e-09  2.8807830134122414e-13  2.6125042175498850e-07  1.2455387730309683e-04  5.8926765603832381e-15  1.3920237569391303e-09  1.2973618486096139e-11  6.7094027402454195e-18  2.2566793812501228e-17  9.7786008441166824e-10  6.4137929916986879e-08  2.5652181314585716e-06  3.5562210836929138e-24  1.7033453271510621e-14  1.7303466969094952e-10  8.1652676416412214e-12  4.1037572200574343e-13  4.3358779502892948e-13  2.6478158977996789e-12  1.3665059498718301e-16  1.4072094593105673e-21  8.7981183145469644e-11  -1.3289960894066862e-27  1.2814800237916793e-19  -1.2731361816530810e-21  -6.1261971431098488e-17  4.1319168260359645e-21  3.1486402857962113e-19  5.1072809383603316e-21  1.2800376057125457e-27  9.2758602816699402e-14  -2.0601504248856944e-22  4.3149725704262921e-05  4.8208971527223609e-05  1.3040317712763464e-10  6.0808546312241620e-16  2.4111648352786959e-18  3.3450834649972083e-10  4.9411826828806519e-22  3.0680296241972102e-20  1.6037668910384898e-07  6.1047772135257608e-08  -3.9006302156843197e-26  1.9666674540101046e-14  8.0934564196115987e-09  -1.3805070637755936e-08  4.5484385659986641e-14  8.5152536817885258e-16  -1.2284357712581231e-24  3.2069695912242648e-04  3.5127316692343848e-03  5.4933977255696223e-04  6.3657995773372935e-10  6.1624450472159889e-27  3.1341342035541189e-11  8.3735385604841796e-05  -1.9379239674786597e-26  3.5360571018153102e-16  2.8952969771929787e-14  8.6451446628554913e-16  1.0916410400169938e-13  3.4659384307861289e-23  5.6742505003544805e-09  2.1378744316692049e-17  1.5569493391712815e-21  1.0319711947301130e-04  3.0981350284235901e-07  1.2207460147551557e-08  8.8339470764970366e-20  5.3368731726707747e-26  2.7440444346366439e-09  1.2450546926701203e-12  6.3753556219703116e-07  -1.6247482863977105e-12  1.2246051928522363e-22  2.4174300460482159e-06  7.2989262404079289e-05  9.1172634090178687e-06  4.1448085848230649e-11  1.0129681899154163e-05  4.0564205696436639e-06  1.1869925071050795e-09  3.0832575496135596e-18  -7.4985921017601988e-16  -2.1394209694959843e-06  4.3882481861116761e-06  -3.8108066840139844e-07  5.1509436311765662e-07  2.6712676977976960e-07  9.8394828681122332e-05  -1.2192545780910600e-06  1.3912667727873465e-24  -4.4425726187649359e-26  8.1905814667451640e-07  4.3199530350163733e-06  8.6486008391848326e-07  1.5597356646412720e-06  6.4807521012567844e-03  1.3587559892007268e-12  -2.1780645112598750e-21  4.9539883649705510e-09  6.7159958471370875e-18  -4.7744843410202073e-24  7.3652429796918599e-20  1.6734902929070199e-11  6.6710949341314807e-19  1.8881888924790911e-05  8.5446951748653744e-16  4.1581720756806708e-10  1.6259952118485009e-15  1.8289148794714443e-16  3.9345061158662992e-06  5.8285138211915483e-06  6.4621966271152609e-17  1.5534431413843653e-12  2.3795229383220790e-21  3.9704066237770461e-06  3.3990590602833793e-13  1.0375579148413388e-27  5.7501628519980249e-04  1.3847872438926311e-03  5.9769851023260637e-12  6.1110927040109972e-15  1.4929340697172088e-07  2.2029211445248345e-09  1.7844293199940980e-20  2.1821476011473130e-06  -1.4200906581241247e-24  -1.7654337600882943e-21  7.5267742851924920e-09  -4.6128703511860236e-20  3.1534331539358924e-03  1.9123002903151255e-08  7.3050960109028156e-14  1.6738124769213357e-12  4.7916248253116979e-10  1.6673934917802507e-16  -1.1397984713887257e-17  2.0018067271203864e-09  8.2217961070863384e-05  6.2650223858933984e-10  9.3928325584322452e-14  1.1987015546377916e-20  -4.1648610936779393e-23  1.4714889852424353e-13  1.4836526721391817e-05  7.7523681492259554e-18  5.6947635635510774e-21  1.1109630628152673e-10  1.5125836462989538e-23  6.0189547203031947e-19  6.6220702432841418e-22  1.7086297321708898e-17  1.3700622565326100e-18  6.5089482030533355e-19  5.0842532086555276e-08  7.7190694005308697e-19  4.8536297493048109e-22  -2.5409857800512233e-19  -7.5149139250034208e-17  -2.6631726120183208e-25  -6.6355691944198707e-24  6.9497815036605056e-23  5.7498199059289814e-05  2.5430540381263610e-05  6.9641144513334590e-06  8.6998307960809182e-19  8.7700768254657662e-05  3.6842593489297873e-08  -5.5711938539931124e-21  2.8521832871461190e-11  6.2901766182533317e-19  2.9200358139665343e-06  2.1432725078262998e-15  3.6617423143933562e-28  9.1472953852631536e-07  5.5818617308008067e-15  7.1827461741486897e-06  6.6392876456106893e-05  7.5565314999797115e-20  9.0557950450146659e-24  1.1301102351991868e-24  8.5274922005692713e-25  7.1478596051982848e-07  3.4035429047713283e-19  8.4842141340669961e-05  2.7400740884143077e-22  9.1329589174891785e-23  5.8085779960408529e-28  3.4608647907823971e-18  1.9536784250768629e-14  2.0619266160572826e-07  9.0683627464728915e-18  8.6133487432462976e-13  1.6706465875364680e-17  4.8833916707624310e-04  2.6657195094399169e-03  1.4385963657719781e-03  2.8479177492226102e-18  1.3800650530645667e-06  1.3339571369899764e-03  7.5570794882191884e-05  5.5144083221599165e-12  1.0344991110359344e-04  -2.1660938661845053e-08  6.1154985073658310e-13  9.9109661835995866e-07  2.4240947027210224e-07  7.4989864682268940e-08  6.2317539528984038e-06  8.9206292264045362e-05  6.5174375429966546e-04  -1.3320468788847494e-20  1.2778847992969339e-11  4.3086937215132093e-11  5.5209790997985223e-18  2.3267464247422355e-03  1.3022369059031412e-21  3.7169376884655959e-07  2.3295862111838424e-12  9.7038813325452805e-05  1.0799359373579993e-04  1.0378714781545742e-07  1.0125998214149892e-11  7.4637823887644196e-13  7.9423120652480654e-04  3.6372931590032426e-04  1.1204626270620512e-20  7.3979437122297154e-22  1.1452182281470858e-03  1.0373167179998326e-21  5.9347398357317141e-23  3.0197689648925105e-06  6.7437775723753481e-11  6.3374810737476062e-05  5.9677242294819363e-11  9.3349527986493383e-05  2.9959810341145438e-18  2.1364327076944252e-08  5.7608560865599205e-09  3.4546708698728588e-14  2.4269984285630362e-13  6.5318794334827552e-14  2.6601688724470988e-15  3.3144587199383877e-15  9.7374584802058044e-14  2.6720385006453094e-06  1.9858891512934722e-12  2.2189112871932371e-09  6.5380368065173725e-08  2.9889297673241539e-10  1.1459052466267774e-10  8.1271553398865984e-17  1.9020263420781307e-08  3.1066472878683364e-17  6.4089590628233005e-18  1.3767127940582269e-12  1.1610849532167776e-11  1.2414636783972915e-07  6.4968516627143124e-08  8.7327972062719442e-09  4.4943028953710929e-05  -4.6282895474883425e-23  3.1500359002637215e-15  2.2423037660615988e-15  1.3927799257043841e-14  3.6122224725593445e-14  3.4954064211751688e-15  1.1995497389353566e-16  5.5056805639716477e-09  4.2970878041566678e-13  6.2436088066437078e-18  7.5417673782167356e-26  -4.3713463236197385e-18  2.1919926132234363e-08  3.4369290035449191e-06  1.8918825985271578e-05  3.3558436970599149e-09  -1.7709487760563956e-21  4.7639079594750640e-04  7.6430743714782581e-12  2.3305739349553640e-17  1.3078164660519393e-03  -7.1689961883964217e-20  2.2734531322055319e-17  1.6121906590358881e-17  3.4875563702654439e-21  2.1989834721279843e-21  6.2314568820919146e-18  1.3470122157831732e-06  1.8493043310323837e-08  7.0468914584516748e-07  8.8681624472542436e-06  4.1346760146681653e-13  2.0768677485136034e-14  4.9755476882789557e-10  -1.5953720675718619e-25  1.7421809647814739e-10  1.4922465871640664e-07  1.5726306294176106e-06  3.7259508062791381e-06  1.4077146219690896e-15  9.5309059174972958e-18  1.2158393382428098e-19  1.6263767117173744e-18  2.5929358582369413e-19  2.8355745826321521e-25  1.4587927767256109e-20  2.6587974510797043e-13  5.5850051146507638e-17  1.3303188626897759e-21  -2.1803421025319836e-22  3.2976182919223172e-12  3.7545586061687231e-16  6.772