<?xml version="1.0"?>
<VTKFile type="UnstructuredGrid"  version="0.1"  >
<UnstructuredGrid>
<Piece  NumberOfPoints="6486" NumberOfCells="12696">
<Points>
<DataArray  type="Float64"  NumberOfComponents="3"  format="ascii">0 5 0  0 0 0  5 0 0  5 5 0  2.5 0 0  5 2.5 0  2.5 5 0  0 2.5 0  2.5 2.5 0  0 1.25 0  1.25 0 0  1.25 5 0  0 3.75 0  5 1.25 0  3.75 0 0  5 3.75 0  3.75 5 0  3.541666666666667 1.458333333333333 0  1.458333333333333 3.541666666666667 0  1.875 1.25 0  3.75 3.125 0  1.284722222222222 2.326388888888889 0  2.683189655172414 3.767959770114943 0  0.9375 0.9375 0  4.0625 4.0625 0  0.7252209595959597 3.026357323232324 0  2.763480392156863 0.9129901960784315 0  1.875 4.345238095238095 0  4.345238095238095 1.875 0  4.192708333333333 0.8072916666666664 0  0.8072916666666665 4.192708333333334 0  3.368055555555555 2.326388888888889 0  0.6837606837606839 1.738782051282051 0  3.285485245626782 4.324328415208927 0  2.551239698778062 1.693130150610969 0  1.827256944444444 2.868923611111111 0  3.464875022477093 0.6813924607921316 0  1.942880513719175 2.059558626187995 0  3.04563492063492 2.971230158730159 0  4.375 3.4375 0  2.13639445139758 0.5994472256987903 0  4.272228422619047 2.606956845238095 0  0.625 0 0  0 0.625 0  5 4.375 0  4.375 5 0  0.6400043240752655 2.384646170113389 0  1.347691225855598 1.660875475110776 0  3.515783617857982 3.723905460714006 0  3.125 0 0  1.875 0 0  0.625 5 0  4.375 0 0  5 1.875 0  0 1.875 0  0 3.125 0  1.875 5 0  5 0.625 0  0 4.375 0  3.125 5 0  5 3.125 0  1.489644181965304 0.6007147273217681 0  2.054597701149425 3.742302955665024 0  2.662520990197781 4.39452575763237 0  2.415835363784578 3.165530021913244 0  0.8679986894865213 3.602373689486522 0  1.267459753787878 2.886186079545454 0  4.099702380952381 1.365327380952381 0  1.316964285714286 4.438244047619047 0  3.7915135293491 1.959691594758709 0  2.875141124191255 2.118761176511833 0  3.00418010501169 1.397414179299248 0  0.4081721322167092 3.410647930198662 0  0.4166666666666666 0.9375 0  1.014190407998288 0.4422301359994293 0  1.383260571305984 1.162718286082048 0  4.53125 3.90625 0  4.453125 4.453125 0  3.772848162504192 4.48678272083473 0  2.8125 0.404329517041716 0  0.4538690476190476 0.4538690476190476 0  2.305461739347387 1.04517007574828 0  3.771263799175824 2.624190260297553 0  3.229617768018734 1.809956994202883 0  3.780190884441317 1.025307111692601 0  4.646337365591398 0.9375 0  4.537623451379149 0.4609485750426037 0  1.200477888421151 3.934852888421152 0  0.3536626344086022 4.0625 0  0.4623765486208503 4.539051424957397 0  4.0625 0.353662634408602 0  4.560525106689535 1.390989100915847 0  3.958439078571988 3.619844539285994 0  4.672619047619047 2.1875 0  2.1875 4.672619047619047 0  1.862808494877602 3.325947624431087 0  0.3268135998175443 2.8125 0  4.674181280189791 2.8125 0  2.283233994935276 4.138623547175983 0  0.9375 4.677879119362977 0  3.08488061581743 3.469889594488945 0  3.113427375573758 3.913955730709506 0  1.652847799068813 3.950848935641292 0  2.932652662909449 2.550542739521724 0  3.311350648514189 1.088831994878698 0  0.6770833333333333 1.295851139601139 0  0 1.5625 0  1.047214787840024 1.96818092308125 0  4.183331482095785 3.03958703580843 0  3.4375 5 0  1.071307777252521 3.246275861010018 0  0 2.1875 0  0.386576856303419 2.03125 0  1.713862716483534 2.439783116849799 0  1.775396256975935 1.665976816304977 0  2.231236976948428 1.443917394671254 0  2.373900732409897 2.086930260150635 0  4.114918237574474 2.221646174618671 0  3.661302567757379 4.099620139144836 0  3.378215938602977 2.734494874063393 0  0.9842097536079312 2.597286741306247 0  1.642795138888889 4.672619047619047 0  4.0625 5 0  2.099458800960004 2.567446522665629 0  2.616202751603346 1.297895893940078 0  5 4.6875 0  0.9937554350075428 1.512592975947215 0  2.8125 5 0  3.002695327068194 4.614055254615477 0  3.205627424097207 0.3852436382721472 0  1.678616581261621 0.927556612265266 0  3.365326698305438 3.196943731162083 0  1.554834936170314 3.120009882655813 0  3.108408340729323 0.7797187795784133 0  3.684368918102174 0.3728877601163941 0  2.716214835303553 3.39276351922003 0  2.37718583984784 3.551973401560441 0  0.3750662445374837 1.52191994866787 0  2.679073487930202 2.844160731602957 0  1.557635869750078 1.991068682985722 0  1.812595698561088 0.3839273018252746 0  2.512014721281916 0.6320641118792227 0  2.1875 0 0  2.349973454443689 0.3189980586887866 0  4.6875 3.59375 0  4.636052949022233 3.178355898044465 0  4.6875 5 0  3.345485909784306 4.665765449101383 0  0.536727472389443 3.749603193819277 0  4.349541499640203 1.116201826262156 0  2.886559045931982 1.774013674579691 0  0.6770833333333334 0.7142857142857143 0  1.5625 0 0  4.120842096538671 4.628726497527622 0  2.176157474177018 1.793470423744689 0  2.175650736889416 2.909863021769539 0  4.036616464259081 1.709699085170981 0  3.887974623473683 0.6492597046022868 0  3.4375 0 0  3.70675699592552 2.289666624772415 0  4.697265625 4.208984375 0  2.815177577303495 4.085937578239174 0  4.672619047619047 1.730733296184288 0  4.6875 0 0  5 0.3125 0  0.3125 5 0  0 4.6875 0  0.3276089296588581 2.484526834811734 0  0.712433309515852 2.065138854645612 0  0.6376435912223634 2.711473454001295 0  1.184991292170422 0.7222504400947201 0  1.31884329779317 0.3206944232264773 0  3.683609198994263 3.44428698533042 0  0.3125 0 0  0 0.3125 0  4.231797269642997 3.789141808928991 0  1.564375596050781 1.425998687184973 0  2.007640894175573 0.9032106925568466 0  0.955125897558294 2.276666098587227 0  1.43898735721003 2.611310720271951 0  1.954491523717513 4.040700257877075 0  1.752947649777421 3.652439445419346 0  2.509575750247638 4.678021307664052 0  4.687194709705067 2.499965519538002 0  1.5625 5 0  0.9375 5 0  5 2.8125 0  2.1875 5 0  5 1.5625 0  5 2.1875 0  4.0625 0 0  5 0.9375 0  2.8125 0 0  0.9375 0 0  0 0.9375 0  0 2.8125 0  0 3.4375 0  0 4.0625 0  5 3.4375 0  5 4.0625 0  4.010848109290813 3.306446973933037 0  0.3077461147713075 3.119700563473354 0  4.6796875 4.6796875 0  2.333079012424948 3.845757959077508 0  0.7829771267899832 3.317744656243421 0  1.159100632608513 3.532487125138763 0  0.799066251840424 3.893573750162776 0  1.57326499580282 4.255438189102632 0  0.7309366047093668 0.2991402264438908 0  0.3054777494262156 1.223275888123843 0  4.027475154280377 2.78211326942427 0  2.35270874745988 4.426658168476266 0  3.474236283732569 2.021154281686229 0  4.401414236174444 2.329446628171927 0  3.39403781747337 3.987097102903034 0  1.077524329801934 1.214100792470484 0  4.065611571711903 1.066085524514197 0  2.165399002716117 3.335637450367864 0  3.007639563081306 1.093684039371638 0  4.030818285732145 4.351883315180857 0  3.504115222530889 1.739284194222036 0  1.224503368215566 4.712091441401919 0  3.805634204685714 1.321528442399996 0  4.319233123479386 1.573547993867769 0  1.024007670021325 4.394604704797005 0  3.776400432023095 3.839003324979723 0  2.991819819453308 4.320567175146181 0  0.9782797534072181 2.886406017887129 0  1.763835134082104 0.6602345487826022 0  3.765182288741625 1.631193038541544 0  2.267959593989681 2.345053543725764 0  4.412434895833333 4.168294270833333 0  4.4072265625 4.7255859375 0  2.791493971314009 3.11210833271929 0  3.408766223032414 3.469500900677365 0  1.915147569444444 4.725484476461039 0  2.070301968506271 0.2605666686358055 0  2.767932250651506 1.530295992695836 0  3.280065043173439 1.364863281105779 0  4.45101570110842 2.974157152713635 0  3.521928862999512 2.96990445010402 0  2.552921961347576 4.008414007169315 0  0.2682955376854191 3.657555015841003 0  3.084522868361304 2.310593316718068 0  2.669255823227708 1.939379494498064 0  2.615884629473921 2.238841231570381 0  1.405652091971449 0.8877813821442277 0  3.25151486618811 3.68536115104276 0  1.963741569810629 2.331207252264507 0  4.017297980292599 2.486269171379106 0  3.869168920841219 4.748188103831625 0  3.596868753579134 4.77342723825056 0  2.41262958240343 2.764128584995838 0  1.266750578673391 1.404747710001619 0  1.559243962241121 2.85146506328516 0  3.128799423834764 2.052081657715259 0  0.6770833333333333 0.9778025793650794 0  0.2083333333333333 0.78125 0  1.978224492765132 3.087074731032578 0  4.051448850909273 1.969392119104174 0  1.320577095006813 4.172234780971559 0  3.214261103850064 2.534397293281829 0  0.2635729089754111 1.779234736680035 0  3.510775680035133 4.460728640112889 0  2.603081405968802 0.2432579385496493 0  2.866341315154884 0.6662105505481998 0  3.000919221100777 0.2270278495648781 0  1.298858304121393 2.05917319923859 0  2.020292299736597 1.589794568392338 0  0.7401688396476035 4.470780315741533 0  0.6721783535561408 4.733125588707921 0  3.753712482075402 2.874301339727514 0  3.557348205914658 2.491958694539413 0  1.094565978195436 0.2011034254079851 0  0.9338148378011396 0.6833568465908735 0  2.945530578578538 3.701798332963805 0  3.111707186654356 3.216904195825605 0  1.341791111822685 3.293123262233967 0  1.632939924064587 1.184895891095613 0  0.6335477978936732 3.517393619499591 0  0.5576014611130192 3.210998966942492 0  1.564344196470102 0.3630498725895039 0  2.75362450242839 4.626680495816594 0  3.571304405229554 1.192452351107437 0  3.522934592621944 0.9359134489437148 0  4.453125 3.671875 0  4.765625 3.828125 0  1.055906321410838 4.14310472322957 0  4.795146539102229 0.46875 0  4.767156345199235 0.7178596932040019 0  0.2048534608977711 4.53125 0  0.232843654800765 4.282140306795998 0  0.5393715189906129 4.270810883024032 0  4.329922600274667 0.2750645887059072 0  4.275515096738972 0.5448389557295173 0  4.477747423652795 0.7252838358993123 0  0.2002829820452772 0.46875 0  0.4352678571428572 0.6956845238095237 0  0.5007241582667088 0.2123388122114133 0  4.672890923830735 0.2500902110494848 0  0.4308009280819452 4.783624996516437 0  2.104871305393774 4.438653689007242 0  0.2274454167838428 0.2274454167838428 0  3.446466574593436 0.4359605369011901 0  2.12354112127588 1.217588426759619 0  2.309175236825235 0.7888355970690434 0  2.556178570281936 1.054299163237582 0  0.578683248637
[...]
<PointData  Scalars="f_16-1"> 
<DataArray  type="Float64"  Name="f_16-1"  format="ascii">-2.9067135133128904e-42  3.5701934048234700e+00  7.8490387978631816e-40  6.1388480530912330e-64  2.9976606439826185e-17  2.0421546852659396e-47  7.1883303089776912e-48  1.6167097950494087e-17  -3.6204175332010298e-25  -1.1443926513858649e-06  -2.4524422263680377e-11  -1.2809829497424002e-46  7.5839501459649176e-31  -7.9747175804108150e-45  2.0021381907732902e-27  -2.2273235732985602e-55  7.7351067167587927e-55  1.6950158998154417e-31  3.4267553393934661e-30  -1.8148232361294057e-14  7.4326915856588514e-40  1.0495200105576109e-17  -1.0452656818356673e-37  -1.4771703821487978e-08  -6.9398786664853388e-50  1.1257831691616226e-23  -1.2951497155826178e-23  -5.8888874380684592e-39  9.2991464010272580e-42  -1.6183469688159330e-36  -1.3225873950201181e-37  6.4717531094918794e-31  7.6228901489892131e-11  -2.3627397917598260e-46  5.9278152647602951e-22  -3.2852139665622163e-24  -5.4106975999971204e-29  5.9190457671272082e-18  1.6106557613669580e-32  -4.0267426763632108e-47  -4.0275902609479007e-17  3.1701409543897342e-41  -3.3933588872865590e-04  -8.0411216624702719e-01  3.9375285958862845e-60  -8.9256363244325661e-59  -3.4520999704960681e-16  -1.7468366686921249e-13  1.8161147003926941e-42  -7.3664527442803035e-22  1.9303193865585719e-14  -8.6427554627930698e-46  -1.7338933878983022e-33  1.1951485335581681e-47  -1.8530206650601988e-12  -6.3966755115426624e-24  1.8420109138043608e-45  -1.8128164306018850e-41  5.9908814194771855e-36  4.9309821364034186e-51  4.2075628348127719e-51  1.0693901534094016e-11  1.9038733602586086e-33  4.4482192715636620e-43  -8.7809100725800745e-30  2.1242636430279672e-30  4.1967963929078417e-23  -1.0733997568212059e-37  3.3249668120120562e-40  -2.9375898735212138e-37  7.0461150960125795e-27  4.1583753765125939e-27  -7.7412624147159780e-29  -3.1484388168650813e-05  3.0012721703716990e-08  -1.3466278698630360e-09  8.6276803774895132e-54  6.5600542512685395e-56  4.2310372593277715e-50  2.2049261518398409e-23  -8.0193101522718357e-03  -2.4837309558942565e-19  -1.0224670169598870e-36  9.1458527667342594e-29  -5.2291806359281468e-34  2.9191983915624251e-39  -5.9986957049160823e-39  -1.5056767054578697e-35  -2.4872777261861053e-35  2.3714194528504537e-40  -6.1076797887707956e-33  9.9339586513712047e-43  -1.2078599336876405e-45  -3.8812933781423876e-45  -4.1538798944546041e-44  -2.3809058612640908e-28  -1.6846847022303004e-21  3.7598975297532127e-46  1.1580652843072373e-38  -6.8360173953991019e-43  1.6396628104050258e-37  1.6555004518787033e-40  -1.3829291057475449e-33  1.3589535332579661e-30  8.9735627415156398e-29  1.8901000172146000e-07  -3.0710253706067345e-10  -1.4110447734362869e-13  4.1870146952591883e-43  -2.1027979034770317e-55  -5.0869394845679919e-27  -3.3314943429790958e-15  6.1975831181299562e-13  1.5504064795862186e-20  7.0446711823156909e-15  -3.7473245487009648e-19  -2.2583566913722201e-22  -7.0034699016982414e-39  7.6337309678333251e-46  -4.0661989864105377e-34  4.0729913916261046e-20  -1.3858859837130978e-41  2.8332913564847245e-56  1.8025981551667841e-23  1.6842170134999647e-22  -3.7068021296544016e-63  7.2180288548456634e-12  -4.7351657319188861e-50  3.8521471795557641e-47  -5.4541079957497727e-25  -1.9718052229357954e-13  -4.8932892820766036e-37  -5.0944533938071992e-25  -4.1078738275305153e-27  4.9400112208633009e-28  1.5991471075938590e-33  -1.3840711451821683e-33  1.2643250580966051e-07  -3.2107504204135998e-30  -2.9090685838985586e-16  -9.9044474828415447e-15  1.2807470470633701e-20  2.9480908749069277e-18  -4.5456685097680282e-18  2.6181808096708125e-51  8.1409782432100056e-48  6.2587559585382327e-62  -2.9849626573995685e-50  -7.0150340583662506e-33  3.2884808516718484e-40  -2.9206045173535964e-24  1.2244252486584432e-05  8.2028432208761287e-13  -6.9709501652549795e-54  1.4614678723984964e-17  -1.1312818096554816e-25  7.8123314684696200e-39  1.6218135066987279e-31  -2.2507769398438827e-25  -2.9131524014078784e-33  1.7776064205398134e-56  1.6817056951325997e-41  -1.3269651684652405e-44  -6.6822639156662676e-37  -1.0523223980372961e-40  1.3142735122823912e-42  -2.6243445573985206e-39  4.1975798056880882e-19  2.9337069813099618e-14  1.3164309748417535e-19  2.0927395551496057e-09  -4.7010827882368148e-10  -1.2139860148727660e-41  2.1979916144511233e-01  6.1583762614217001e+01  4.2677234592947873e-49  3.3184078838477009e-12  -8.2405496522240537e-16  -5.0405659732845479e-18  4.2598725125058290e-21  3.7747322001367402e-37  5.5525902916337832e-31  -2.0062360248636514e-45  1.9836156198427619e-46  4.4375340582782903e-45  -7.9957851823316774e-47  -6.5720356267755241e-49  -3.6835970677103115e-47  -2.2282072797214668e-48  -1.4686441434431362e-47  7.0557355267143156e-31  1.1392658048228436e-42  -2.0127666879360267e-19  -4.1639209253719504e-06  3.0133588919792243e-03  -7.6040190479571450e-22  3.8152944403949275e-27  -4.7951884254209694e-33  -3.5179230528042567e-53  -1.1797609722970815e-57  -6.2789792353077410e-43  3.8505689451631518e-25  -1.4961841687473772e-59  -2.3993593431134148e-35  -2.9874395909839882e-27  -2.2778207354728908e-30  1.0262326170009725e-33  3.5125370095296197e-38  -1.2532757976398175e-04  1.4551273465247795e-05  1.2716569734819884e-40  4.8762070563149668e-42  -1.2939340679315490e-31  2.1533237713852766e-40  -2.3250240229315296e-42  3.6959384921513359e-09  -5.7342019559261724e-36  -1.4736458533977781e-29  -4.7905790960612985e-27  -1.6924674186471492e-51  2.3106227892596720e-31  2.5408130149615576e-43  6.0588332696206282e-36  -2.6884294872571363e-40  9.6934763762505663e-39  1.1364198448013860e-44  2.4468561232102582e-44  -2.2680249064728941e-22  1.4464252004456181e-13  -4.8234617769368541e-34  2.3682219551969591e-22  2.5740925657364446e-53  9.1788057263887824e-57  3.9343984940074163e-32  -3.1341610349866303e-39  7.0799208125093349e-43  7.0804128725094471e-16  8.5985966105845945e-23  -1.0501270911678310e-29  5.8859033728354982e-45  -6.3740166788617448e-37  7.1635048814196730e-38  -4.5765291206020788e-31  -4.2162149124137344e-29  -1.5398769049291374e-23  -5.4384523192124501e-25  -1.5879585344697344e-10  1.3612124228993556e-39  -9.4760595509616645e-20  -2.0187596975162648e-37  -1.0042154627988669e-52  -1.6211044508578631e-52  -3.2899612417551520e-26  6.2052732670142884e-10  3.5946868614857928e-24  5.9687560032063593e-29  -2.6783795218558724e-06  2.3061686313673138e-03  -6.2652478532067517e-26  1.7815174940234224e-38  -6.1114540935243531e-37  -1.8254341468617682e-31  -8.7052158726565249e-11  2.3933564328234599e-49  1.1584405828688494e-19  -2.2650899809784355e-24  1.4798283208811496e-23  8.3154645776828520e-16  1.2698461007875857e-15  4.5949324631836822e-39  -2.1394039598920586e-42  5.7468494005363677e-39  -1.1171730806600239e-33  -7.2425707824237648e-08  5.0538433063578897e-08  -1.6619124081146719e-37  -6.2858760565910201e-35  4.9169384766831008e-27  -8.5383178354128560e-12  -2.0586558032088827e-30  1.0751323448540684e-27  -1.0176431896992488e-11  8.0252068029130235e-45  1.1316072678867356e-32  1.9110359790727664e-31  -1.3528252332577645e-50  -4.1868984703901579e-54  -3.8575258691522165e-38  -3.6409097065746037e-39  1.9204569403499183e-40  -5.2515932172259842e-38  -1.6368447239447918e-37  -2.1319944319661688e-37  3.0370412331578224e-34  1.8451921040311114e-35  -5.4540787424278322e-37  8.8485568135768329e+00  -3.0026806715984914e-03  -9.3097077329435174e-02  7.9535232501204114e-37  -7.2851423274837660e-43  2.1402753355460945e-42  1.8956976400985148e+01  -2.0794425567352907e-27  1.3370583971642101e-17  9.8153913208161350e-19  -5.5848108076578566e-22  -7.5604919541025324e-36  9.5194879589186060e-35  -2.5242320660104459e-18  -4.3613507192730988e-34  2.3066433079474942e-30  -1.1287136881775242e-42  2.2135054436081065e-46  -7.3208739443816195e-59  -1.0322168601443865e-09  9.8201726833126197e-33  7.8721267980970084e-33  -2.4426985789271015e-27  5.7307015876287653e-46  -1.4947752046050976e-32  8.6132264345292990e-32  2.2288869913180986e-12  1.2943248435763204e-27  -3.1970109439213975e-31  -1.6014830943514006e-39  4.1544575624573858e-14  1.3232044224904051e-43  5.4000993727452058e-40  1.5415547158282881e-15  1.6967499064315879e-46  1.1300271198594278e-08  7.3139963223855424e-21  -5.7917750235980835e-48  -8.2048660292158142e-48  -6.9287929199156813e-35  5.2304976792419589e-47  3.2585357373681907e-22  -1.3639417385021062e-20  3.0891259642669401e-49  2.4897340995828269e-43  2.0098375162764573e-17  -6.5009565829176355e-26  7.6874319844278966e-30  -4.7492398175963015e-49  1.4090945391324585e-26  9.2862882462799048e-51  1.0328509488922086e-43  -3.8343679676747270e-27  4.8224757259181122e-44  -3.2449524352216103e-22  -1.7283201764750305e-09  -6.9894386406384487e-07  -1.9744018162709115e-05  6.2476853995962389e-30  6.0565576892364435e-27  -1.1229707635434143e-16  -2.6429841640728864e-47  2.1298973859416417e-46  -6.8914669388854866e-47  6.8884251442898196e-41  1.0618162757269482e-61  -7.4904502359008238e-41  -6.2494902638884014e-43  1.3828623267993052e-23  4.1717915897128127e-57  -1.5189991678951195e-25  1.0815517774659071e-45  5.8058500198174180e-36  5.0653842890425716e-34  -2.4472754399319571e-28  7.4782989169196516e-23  8.4997806648073775e-07  4.9404611803947118e-53  -1.2026260431476699e-34  -5.1032548036524624e-21  3.5915302639202185e-21  1.0667822911879118e-48  6.8992223738486900e-14  6.5204207981204691e-14  -1.0237502691279532e-12  -1.9991390046636453e-16  6.1770615147349374e-36  -1.4812047682128275e-22  -8.9368182865986064e-32  -7.0216386078756603e-28  2.2091234109670896e-37  4.9350221529498130e-39  -3.8885768052837345e-44  -9.1036216087529941e-28  -1.4202585132111050e-20  -2.4039014338206768e-09  -1.6664693209983585e-39  -9.4208700212652557e-12  3.2075894147627332e-16  1.9195023674526573e-51  4.2252429255669534e-30  -7.3779591780339901e-27  -5.0097101700674230e-49  -2.0304507423182314e-23  -1.6358315945864060e-04  5.5373976161263615e-14  -2.2165464113424231e-37  7.3103698254838932e-41  2.4103093692276630e-29  -6.3585092900664821e-40  3.7267623077464677e-49  1.2453379708517535e-25  2.1178502758912803e-12  -4.2831583856392290e-38  3.1349919418273070e-20  -3.5523524954414862e-22  -6.4823667961654670e-21  6.8082182373691891e-38  -2.3075812902347692e-28  2.5310873530100699e-24  3.2690835717063383e-35  -1.0224029640156633e-08  -1.9007761230687434e-16  8.5792839118713770e-46  3.7809725296427665e-24  2.5300828156164340e-39  -7.4883306181967892e-44  4.3913867603063772e-47  2.7830033200909518e-22  -2.4278598126433131e-18  7.0460627629308767e-33  -1.1475961484895300e-39  8.7838641729546199e-45  -2.0502830624588739e-48  1.0244960612973503e-12  -1.2273095889941812e-26  -2.1325930960799223e-43  -3.5154964965483391e-41  7.2481515302526202e-33  -1.3434938722668168e-20  -8.7353249942374738e-35  -1.0348428410714465e-20  -1.0550972701489588e-43  2.1408048329229571e-12  1.0426438684203733e-41  -1.3184538518158192e-28  -2.0500545407353844e-19  5.6919688879542559e-31  7.4692935548838613e-60  -2.7863145422758385e-15  -2.2918267581576439e-37  3.8750823545823172e-27  -9.3004368740501774e-16  -1.8831565405868371e-35  5.9232940218571717e-31  2.2227881920375438e-14  -2.4787590760997563e-45  -9.9260726469221767e-57  -3.6657971033777377e-43  -5.4814150274919514e-48  -7.3294597086925219e-16  2.1555881450025187e-09  -5.2901483312467327e-26  2.3834453604220226e-11  2.6932785776653078e-36  2.1714511016592483e-26  -4.7129000117703014e-18  5.2235590291525873e-32  -2.5602909572689100e-32  3.2314793978706260e-21  3.1140165032690446e-41  -1.8924605791526996e-12  6.2438681433869230e-27  -7.2896134043610135e-07  3.0098063385011152e-30  3.5653971075877658e-11  -4.1945564776856731e-14  7.2584017534353264e-19  -7.0752268877013281e-23  -2.7187594976902505e-22  -1.0846209266043176e-34  9.1450572495414367e-37  -8.3736441391800408e-32  2.0041633793116129e-06  -2.5549474522527879e-46  6.1031931572998284e-52  5.9526783256440098e-55  1.0348677199468440e-41  -4.5175646812737092e-19  8.6231661956617348e-53  -7.2416920337259307e-11  7.7113764667390503e-17  2.5881839201135325e-19  -1.3740499752310490e-38  1.1695166013271776e-24  1.4417202531873797e-24  3.2700424662199832e-45  -9.2041623939672197e-28  1.7476716065893239e-47  1.6179336833859527e-46  -6.4517222097471838e-36  -8.1869342013910444e-48  -1.6351234456825647e-32  -2.2690128472457540e-52  -4.3779061089256249e-37  2.1589931150678053e-29  -1.9927832320930347e-25  8.9422815401131630e-06  1.6441579750005772e-43  2.0498088244560127e-41  1.4051725962820129e-44  2.9163175705661918e-14  -5.2064807960634512e-32  -1.2273354823445927e-30  -9.3707509869123405e-33  7.0514470272282912e-55  3.1046627674425833e-15  1.3936602676594340e-41  -3.1253116825591523e-15  1.3244221140848679e-15  4.2812573963253934e-37  -3.9602782043693737e-29  3.8716071827197337e-35  -3.2594690634694079e-45  1.3000761388950763e-43  2.0201767307145484e-16  2.9004138802876540e-13  -1.9210607656331859e-26  1.1652720164981435e-43  -2.5060239609041455e-39  -6.9853581962024847e-33  -1.1397453568344778e-31  4.8087018956668172e-34  -8.9973782271475896e-42  6.6047061419705048e-34  -1.2570973855056165e-48  -1.3474083211701540e-39  2.2401580452497741e-19  -2.8404916221966059e-46  -2.2414893192032720e-40  -7.3436628224928557e-38  1.8031215195270510e-36  1.7494298896629285e-53  -4.4774425612761127e-52  4.1351667524583763e-51  -7.0485510131787329e-40  -3.1902780898961030e-40  -1.0138090158505151e-36  4.0906504382927135e-15  4.7470602088364067e-16  -2.1423714327747546e-29  2.8992472298753154e-49  4.0229288593162174e-52  1.8982030264321029e-32  -5.0486567202538920e-58  3.1084324413208169e-56  1.4606686276043620e-22  1.3379048751639976e-25  1.4867695830366906e-38  2.1756400926903250e-37  -1.7296129982647950e-30  -1.6337827218113750e-13  1.0152458889620687e-43  3.6815211246861282e-43  1.6041332515226101e-36  -1.4308915515649296e-04  8.9004323464478964e-06  2.0204250308266513e-06  2.5312824579572195e-34  3.6544863397243975e-39  3.4434151769486084e-39  -4.0118764043710353e-11  2.2241045769353984e-45  2.0213293453159566e-40  9.5228988818368041e-24  -1.2048779636768676e-29  -5.6167602238410302e-42  -1.8771297018148409e-61  -2.7652192943368845e-34  1.2767472161667918e-51  2.5431192995066051e-57  1.0599720324947472e-10  -3.5158579643480643e-23  -1.4524899548885895e-32  -1.3746746080427563e-42  1.4143084474007882e-46  9.5079379843372970e-30  1.0116117260664123e-40  2.1448252740729150e-08  7.8772897202482883e-29  9.8355554194996550e-57  -2.9279138215564618e-26  -7.7651248813290264e-13  -1.5324558364019124e-21  -9.8704174320018729e-39  -3.9013197870648845e-19  4.4503620191428277e-24  2.2898557335090961e-17  1.0191762118568537e-44  -2.6721684691535789e-35  -5.3235310908240961e-04  -2.4731964483913844e-20  3.3105715355665253e-10  3.7175351969230239e-09  -9.2715098988361930e-11  -3.1087024858027366e-09  8.4694191806676356e-10  -9.4214459240135907e-46  1.0188203238500892e-47  7.3187805026693586e-28  -4.1855588480838350e-25  -7.8022896759200300e-25  -2.3166980697957012e-21  3.6043860227082933e-02  -1.2945376680931055e-41  -1.8016407959228428e-43  -2.5440739838084737e-15  4.1470599844381530e-51  3.9469479178737222e-40  2.7107954372217329e-54  -2.5991448626200963e-38  -1.1791865351800098e-52  2.3268954682810444e-17  -9.2622132991109335e-48  -1.5264964062019249e-25  5.4790295170915982e-44  -6.7167181085863057e-44  2.7374070516686833e+00  2.5556025544604800e+03  2.9475609788658857e-49  -3.2779704356668104e-18  2.7236409128836911e-59  -2.0069360068774394e-01  -2.6485286656985062e-35  -6.5885782394112853e-41  -2.6446604196503531e-11  -6.1069321352299601e-12  -7.9799605403481329e-31  -8.4420348337142743e-43  -5.2498394482524141e-27  -9.1160556324965720e-18  -9.0667977178068521e-56  -2.3436409356308707e-03  -8.1551886850500310e-35  4.8285172720909862e-34  -2.0360105357094739e-16  -4.5175824910386372e-41  -1.3825109941637009e-06  3.4704817498147324e-28  -5.2228021048225523e-39  -4.1103770737474915e-36  -6.5230818608631618e-33  1.5537121668300117e-49  1.1590575998349877e-25  1.8777767226134101e-34  -9.1904490856201841e-21  -1.5872978546201674e-36  -1.8481295494264233e-40  -2.4507983468953096e-44  6.8374292932798525e-47  2.1912696185986687e-36  1.2886456085226740e-17  5.2322535494156183e-48  -7.7210451546408350e-49  6.3249855843714700e-17  7.8058727689742101e-62  1.4862790623777071e-44  5.6728366326629157e-58  1.0104506375318139e-40  1.2394559266375361e-44  -1.0565980822334421e-47  9.8144489713691749e-26  -3.6935655274565248e-46  -3.6465681667942137e-52  9.0507884493436399e-26  1.5531526624657044e-23  1.3173834742393308e-47  -3.1646327405399155e-47  4.5115894463865652e-50  -7.0555434308184594e-15  1.5724519213856821e-15  -1.6350343680292927e-19  -7.8376479319405495e-49  -6.7583806497557656e-09  -1.0740978157602015e-13  -1.7138928711444894e-28  6.1778937211899584e-32  2.4032811839706566e-44  -8.5185644040369300e-03  -5.0854929045609007e-38  4.6522942006002290e-41  3.9564571983528326e-08  3.3024473366688035e-21  2.0587687194468749e+01  4.8873747753127271e-02  -1.1267982265575402e-54  1.6462622147550425e-61  -2.7427784340296424e-65  -1.5981819778128043e-62  -8.9767214526457052e-23  7.1841862221368033e-50  7.4408831151996481e-05  -9.3047353670384546e-55  -2.6085889750575361e-59  3.3386045025420838e-43  -3.5675116547998515e-34  2.9589241642254181e-42  5.0068250083301599e-28  3.5446418260752138e-44  4.5974495668940910e-25  -6.5210070868091617e-46  3.2258870881391707e-09  9.6120731290360351e-09  -7.3068383832951874e-08  3.0049598868815325e-49  -8.0337627567958070e-06  4.1636441066301889e-15  -4.9280466174917463e-07  -4.8219780401879073e-37  1.5657209434982913e-20  4.3808076503149410e-18  -9.5820595136524531e-38  8.7065870665765269e-24  -3.1365915517409061e-24  1.1693216782066118e-26  6.0644635539002390e-23  5.6929621156594370e-07  4.1109703175636129e-05  -9.7308240689551876e-43  2.0716193534606600e-38  -4.6622896563514995e-35  4.7812536302046857e-42  -3.1502907894352472e-11  1.5487949751291343e-47  -1.4820769240599059e-24  -1.2491959166659493e-37  -1.4893016334424959e-21  -1.1353396472830214e-12  3.4947490759377429e-30  -9.9058729196878366e-36  2.6515949906021526e-25  1.8614949467216809e-17  -2.0176903324634825e-18  8.5896027371708858e-34  -5.0327654281112506e-45  3.3767545376476137e-12  -2.4769189451168980e-41  3.2640148943386271e-41  -3.4144246797488953e-25  1.9962553968480930e-30  1.2539071702685891e-12  2.9379450806610847e-34  -1.9918791201256027e-10  -2.1279142845520943e-47  4.3377788390835949e-28  -2.7994740861761766e-29  -4.5629902828067346e-45  -1.7756294008297519e-38  -6.8335131008648931e-38  3.0290941628360183e-41  1.0863530674950028e-39  -1.1681672613859267e-37  2.2993102693144248e-21  3.6667299661155990e-38  -5.6201276635961240e-30  -2.4072523177779790e-21  2.9009824546674100e-32  -3.2368978359766566e-34  -4.1378438662857218e-47  -4.2600401048267580e-27  -7.6882265242533912e-33  -2.2607373121519534e-33  -2.2922012237472254e-37  1.4594006216099887e-37  -1.4787050823660611e-25  -7.0863816589141377e-27  4.3828266078327906e-29  -5.2104696280314997e-20  3.1582713986359761e-36  5.6871947287044219e-43  1.8731157197082558e-44  8.3381043923767216e-40  -2.5983971647958252e-37  4.7922172250030186e-40  2.2613520742375040e-48  -3.5946244728416252e-33  2.2031570662578036e-24  -4.2375503952204586e-46  -6.9878847697360743e-47  1.2761471873139158e-43  1.5473471135655922e-29  -1.5125916716388269e-22  -3.3210735173525300e-17  -1.5839227405089874e-32  1.9121546541707831e-31  1.7564296602559146e-13  4.2283000993837165e-22  -2.7556717676097343e-51  2.3390123302148237e-10  -3.9754016606485057e-30  -1.0336357717489999e-50  -4.2214464700467857e-50  -1.7356928391299118e-57  -1.3313543213420602e-39  -3.4646956829849054e-44  2.3756067761164934e-22  1.0170966676574469e-32  -2.3999249110284236e-28  7.8862135514811334e-20  -9.5651399255765646e-42  -3.8956165219888468e-44  -3.4695119073095465e-31  -1.1714461520211092e-38  -2.7701404818376218e-20  -1.5981367905722934e-29  -2.2572770668109799e-22  -1.28985479622