<?xml version="1.0"?>
<VTKFile type="UnstructuredGrid"  version="0.1"  >
<UnstructuredGrid>
<Piece  NumberOfPoints="6486" NumberOfCells="12696">
<Points>
<DataArray  type="Float64"  NumberOfComponents="3"  format="ascii">0 5 0  0 0 0  5 0 0  5 5 0  2.5 0 0  5 2.5 0  2.5 5 0  0 2.5 0  2.5 2.5 0  0 1.25 0  1.25 0 0  1.25 5 0  0 3.75 0  5 1.25 0  3.75 0 0  5 3.75 0  3.75 5 0  3.541666666666667 1.458333333333333 0  1.458333333333333 3.541666666666667 0  1.875 1.25 0  3.75 3.125 0  1.284722222222222 2.326388888888889 0  2.683189655172414 3.767959770114943 0  0.9375 0.9375 0  4.0625 4.0625 0  0.7252209595959597 3.026357323232324 0  2.763480392156863 0.9129901960784315 0  1.875 4.345238095238095 0  4.345238095238095 1.875 0  4.192708333333333 0.8072916666666664 0  0.8072916666666665 4.192708333333334 0  3.368055555555555 2.326388888888889 0  0.6837606837606839 1.738782051282051 0  3.285485245626782 4.324328415208927 0  2.551239698778062 1.693130150610969 0  1.827256944444444 2.868923611111111 0  3.464875022477093 0.6813924607921316 0  1.942880513719175 2.059558626187995 0  3.04563492063492 2.971230158730159 0  4.375 3.4375 0  2.13639445139758 0.5994472256987903 0  4.272228422619047 2.606956845238095 0  0.625 0 0  0 0.625 0  5 4.375 0  4.375 5 0  0.6400043240752655 2.384646170113389 0  1.347691225855598 1.660875475110776 0  3.515783617857982 3.723905460714006 0  3.125 0 0  1.875 0 0  0.625 5 0  4.375 0 0  5 1.875 0  0 1.875 0  0 3.125 0  1.875 5 0  5 0.625 0  0 4.375 0  3.125 5 0  5 3.125 0  1.489644181965304 0.6007147273217681 0  2.054597701149425 3.742302955665024 0  2.662520990197781 4.39452575763237 0  2.415835363784578 3.165530021913244 0  0.8679986894865213 3.602373689486522 0  1.267459753787878 2.886186079545454 0  4.099702380952381 1.365327380952381 0  1.316964285714286 4.438244047619047 0  3.7915135293491 1.959691594758709 0  2.875141124191255 2.118761176511833 0  3.00418010501169 1.397414179299248 0  0.4081721322167092 3.410647930198662 0  0.4166666666666666 0.9375 0  1.014190407998288 0.4422301359994293 0  1.383260571305984 1.162718286082048 0  4.53125 3.90625 0  4.453125 4.453125 0  3.772848162504192 4.48678272083473 0  2.8125 0.404329517041716 0  0.4538690476190476 0.4538690476190476 0  2.305461739347387 1.04517007574828 0  3.771263799175824 2.624190260297553 0  3.229617768018734 1.809956994202883 0  3.780190884441317 1.025307111692601 0  4.646337365591398 0.9375 0  4.537623451379149 0.4609485750426037 0  1.200477888421151 3.934852888421152 0  0.3536626344086022 4.0625 0  0.4623765486208503 4.539051424957397 0  4.0625 0.353662634408602 0  4.560525106689535 1.390989100915847 0  3.958439078571988 3.619844539285994 0  4.672619047619047 2.1875 0  2.1875 4.672619047619047 0  1.862808494877602 3.325947624431087 0  0.3268135998175443 2.8125 0  4.674181280189791 2.8125 0  2.283233994935276 4.138623547175983 0  0.9375 4.677879119362977 0  3.08488061581743 3.469889594488945 0  3.113427375573758 3.913955730709506 0  1.652847799068813 3.950848935641292 0  2.932652662909449 2.550542739521724 0  3.311350648514189 1.088831994878698 0  0.6770833333333333 1.295851139601139 0  0 1.5625 0  1.047214787840024 1.96818092308125 0  4.183331482095785 3.03958703580843 0  3.4375 5 0  1.071307777252521 3.246275861010018 0  0 2.1875 0  0.386576856303419 2.03125 0  1.713862716483534 2.439783116849799 0  1.775396256975935 1.665976816304977 0  2.231236976948428 1.443917394671254 0  2.373900732409897 2.086930260150635 0  4.114918237574474 2.221646174618671 0  3.661302567757379 4.099620139144836 0  3.378215938602977 2.734494874063393 0  0.9842097536079312 2.597286741306247 0  1.642795138888889 4.672619047619047 0  4.0625 5 0  2.099458800960004 2.567446522665629 0  2.616202751603346 1.297895893940078 0  5 4.6875 0  0.9937554350075428 1.512592975947215 0  2.8125 5 0  3.002695327068194 4.614055254615477 0  3.205627424097207 0.3852436382721472 0  1.678616581261621 0.927556612265266 0  3.365326698305438 3.196943731162083 0  1.554834936170314 3.120009882655813 0  3.108408340729323 0.7797187795784133 0  3.684368918102174 0.3728877601163941 0  2.716214835303553 3.39276351922003 0  2.37718583984784 3.551973401560441 0  0.3750662445374837 1.52191994866787 0  2.679073487930202 2.844160731602957 0  1.557635869750078 1.991068682985722 0  1.812595698561088 0.3839273018252746 0  2.512014721281916 0.6320641118792227 0  2.1875 0 0  2.349973454443689 0.3189980586887866 0  4.6875 3.59375 0  4.636052949022233 3.178355898044465 0  4.6875 5 0  3.345485909784306 4.665765449101383 0  0.536727472389443 3.749603193819277 0  4.349541499640203 1.116201826262156 0  2.886559045931982 1.774013674579691 0  0.6770833333333334 0.7142857142857143 0  1.5625 0 0  4.120842096538671 4.628726497527622 0  2.176157474177018 1.793470423744689 0  2.175650736889416 2.909863021769539 0  4.036616464259081 1.709699085170981 0  3.887974623473683 0.6492597046022868 0  3.4375 0 0  3.70675699592552 2.289666624772415 0  4.697265625 4.208984375 0  2.815177577303495 4.085937578239174 0  4.672619047619047 1.730733296184288 0  4.6875 0 0  5 0.3125 0  0.3125 5 0  0 4.6875 0  0.3276089296588581 2.484526834811734 0  0.712433309515852 2.065138854645612 0  0.6376435912223634 2.711473454001295 0  1.184991292170422 0.7222504400947201 0  1.31884329779317 0.3206944232264773 0  3.683609198994263 3.44428698533042 0  0.3125 0 0  0 0.3125 0  4.231797269642997 3.789141808928991 0  1.564375596050781 1.425998687184973 0  2.007640894175573 0.9032106925568466 0  0.955125897558294 2.276666098587227 0  1.43898735721003 2.611310720271951 0  1.954491523717513 4.040700257877075 0  1.752947649777421 3.652439445419346 0  2.509575750247638 4.678021307664052 0  4.687194709705067 2.499965519538002 0  1.5625 5 0  0.9375 5 0  5 2.8125 0  2.1875 5 0  5 1.5625 0  5 2.1875 0  4.0625 0 0  5 0.9375 0  2.8125 0 0  0.9375 0 0  0 0.9375 0  0 2.8125 0  0 3.4375 0  0 4.0625 0  5 3.4375 0  5 4.0625 0  4.010848109290813 3.306446973933037 0  0.3077461147713075 3.119700563473354 0  4.6796875 4.6796875 0  2.333079012424948 3.845757959077508 0  0.7829771267899832 3.317744656243421 0  1.159100632608513 3.532487125138763 0  0.799066251840424 3.893573750162776 0  1.57326499580282 4.255438189102632 0  0.7309366047093668 0.2991402264438908 0  0.3054777494262156 1.223275888123843 0  4.027475154280377 2.78211326942427 0  2.35270874745988 4.426658168476266 0  3.474236283732569 2.021154281686229 0  4.401414236174444 2.329446628171927 0  3.39403781747337 3.987097102903034 0  1.077524329801934 1.214100792470484 0  4.065611571711903 1.066085524514197 0  2.165399002716117 3.335637450367864 0  3.007639563081306 1.093684039371638 0  4.030818285732145 4.351883315180857 0  3.504115222530889 1.739284194222036 0  1.224503368215566 4.712091441401919 0  3.805634204685714 1.321528442399996 0  4.319233123479386 1.573547993867769 0  1.024007670021325 4.394604704797005 0  3.776400432023095 3.839003324979723 0  2.991819819453308 4.320567175146181 0  0.9782797534072181 2.886406017887129 0  1.763835134082104 0.6602345487826022 0  3.765182288741625 1.631193038541544 0  2.267959593989681 2.345053543725764 0  4.412434895833333 4.168294270833333 0  4.4072265625 4.7255859375 0  2.791493971314009 3.11210833271929 0  3.408766223032414 3.469500900677365 0  1.915147569444444 4.725484476461039 0  2.070301968506271 0.2605666686358055 0  2.767932250651506 1.530295992695836 0  3.280065043173439 1.364863281105779 0  4.45101570110842 2.974157152713635 0  3.521928862999512 2.96990445010402 0  2.552921961347576 4.008414007169315 0  0.2682955376854191 3.657555015841003 0  3.084522868361304 2.310593316718068 0  2.669255823227708 1.939379494498064 0  2.615884629473921 2.238841231570381 0  1.405652091971449 0.8877813821442277 0  3.25151486618811 3.68536115104276 0  1.963741569810629 2.331207252264507 0  4.017297980292599 2.486269171379106 0  3.869168920841219 4.748188103831625 0  3.596868753579134 4.77342723825056 0  2.41262958240343 2.764128584995838 0  1.266750578673391 1.404747710001619 0  1.559243962241121 2.85146506328516 0  3.128799423834764 2.052081657715259 0  0.6770833333333333 0.9778025793650794 0  0.2083333333333333 0.78125 0  1.978224492765132 3.087074731032578 0  4.051448850909273 1.969392119104174 0  1.320577095006813 4.172234780971559 0  3.214261103850064 2.534397293281829 0  0.2635729089754111 1.779234736680035 0  3.510775680035133 4.460728640112889 0  2.603081405968802 0.2432579385496493 0  2.866341315154884 0.6662105505481998 0  3.000919221100777 0.2270278495648781 0  1.298858304121393 2.05917319923859 0  2.020292299736597 1.589794568392338 0  0.7401688396476035 4.470780315741533 0  0.6721783535561408 4.733125588707921 0  3.753712482075402 2.874301339727514 0  3.557348205914658 2.491958694539413 0  1.094565978195436 0.2011034254079851 0  0.9338148378011396 0.6833568465908735 0  2.945530578578538 3.701798332963805 0  3.111707186654356 3.216904195825605 0  1.341791111822685 3.293123262233967 0  1.632939924064587 1.184895891095613 0  0.6335477978936732 3.517393619499591 0  0.5576014611130192 3.210998966942492 0  1.564344196470102 0.3630498725895039 0  2.75362450242839 4.626680495816594 0  3.571304405229554 1.192452351107437 0  3.522934592621944 0.9359134489437148 0  4.453125 3.671875 0  4.765625 3.828125 0  1.055906321410838 4.14310472322957 0  4.795146539102229 0.46875 0  4.767156345199235 0.7178596932040019 0  0.2048534608977711 4.53125 0  0.232843654800765 4.282140306795998 0  0.5393715189906129 4.270810883024032 0  4.329922600274667 0.2750645887059072 0  4.275515096738972 0.5448389557295173 0  4.477747423652795 0.7252838358993123 0  0.2002829820452772 0.46875 0  0.4352678571428572 0.6956845238095237 0  0.5007241582667088 0.2123388122114133 0  4.672890923830735 0.2500902110494848 0  0.4308009280819452 4.783624996516437 0  2.104871305393774 4.438653689007242 0  0.2274454167838428 0.2274454167838428 0  3.446466574593436 0.4359605369011901 0  2.12354112127588 1.217588426759619 0  2.309175236825235 0.7888355970690434 0  2.556178570281936 1.054299163237582 0  0.578683248637
[...]
<PointData  Scalars="f_16-3"> 
<DataArray  type="Float64"  Name="f_16-3"  format="ascii">1.9058522697289132e-35  -9.0518618736352892e+03  2.5945798406267604e-33  -3.6102335981800656e-55  2.6687901581599704e-13  1.1004579437293272e-39  -5.0701482761210074e-41  5.1209694025704555e-13  2.8604245999126807e-20  1.8525923626765686e-03  8.8421318442438874e-06  5.1175854888640568e-39  5.0043473122744041e-24  -1.8419019705633606e-37  -2.8647454483506775e-22  -6.7567867089004478e-47  -1.8561372694195431e-46  4.1400730764220596e-26  2.7662286867049198e-24  3.7688363974538091e-10  8.1332644992896926e-32  -3.5425283406980105e-13  -8.5362279312691371e-31  1.1926735866318808e-05  -1.4815417241238545e-41  1.3847442919604183e-18  -1.3005024129248078e-18  -2.5820078165962471e-32  -1.7772249942995487e-34  1.8198915706450272e-30  7.2085847251164939e-30  4.5353413559105085e-23  -1.2762721220947361e-07  -2.7760708019594383e-38  1.6408049643657988e-16  -2.1868996945347035e-19  3.3734041098155308e-24  -3.2848984211267298e-13  -2.1395284703658497e-26  -1.6265108950581776e-38  1.4804608199957328e-12  -2.4755623413997156e-32  8.9396742712587640e-01  2.0519701495647619e+03  -2.8943478089337115e-50  4.2527580734633864e-50  -3.4863698527222628e-12  -7.9775341872242822e-09  -6.0026826400251509e-34  1.2373768465483170e-18  -1.2901359421172414e-10  5.6039186331682321e-38  -6.6199850407599228e-28  -1.9564423253212981e-39  3.2218192660960642e-09  1.8232952565204213e-18  1.5068785483836685e-38  -1.3059785173842318e-35  -1.7590606999913084e-29  -1.9672249658138096e-42  1.0391810667156756e-40  1.7697029318828610e-08  2.9744082818345263e-27  6.5524172460098107e-36  -7.8545893998058953e-24  1.1491617544098472e-23  4.6236909730176202e-19  -3.8455914537357659e-31  3.0942501512405460e-33  -4.5585031687783071e-29  1.8118263815627734e-19  -4.0637227709697677e-21  7.4420636145729672e-23  -1.2393506003414334e+00  -1.2772348079684510e-04  3.0986012601096610e-05  1.8561585988839464e-44  -4.6410814189759406e-47  -6.0903515069626881e-42  7.8924193777508975e-18  1.6923201661623427e+01  -1.2292977797805335e-14  2.2014784631110776e-28  2.5704207213682055e-22  5.4127472147064819e-28  -2.2031391924880306e-32  8.8997864652365284e-32  -8.6150078564525343e-29  1.7060574915790546e-28  3.6462947880501988e-32  2.4979724208905442e-28  -7.8676329081723125e-36  -1.2253380890265407e-36  -5.3929746268390526e-35  -3.0059062030048588e-37  -3.8850713276870186e-23  -1.2846057208468484e-16  -1.6949211887855437e-36  -6.4577808885987950e-32  1.6184930254934953e-35  -5.6443269260063989e-30  -1.4104900971916484e-33  -2.2184695773212909e-27  2.4776393030193517e-22  -3.5004308795478052e-23  -1.8419427112917569e-04  7.5663515149873175e-07  1.1381995246193765e-09  1.8870456650797048e-34  3.3500154656408169e-45  5.4434702268347296e-21  -7.6427808674990866e-12  7.7470470388070262e-09  -3.5974091307040106e-15  -1.9494056846403976e-10  7.6455358802965435e-14  -5.0717566107468071e-17  1.2065340096306405e-29  -1.5021263315203896e-37  1.7403174127044686e-26  -9.7044193007313273e-17  -1.2520368490724541e-34  1.4197478876827551e-46  -4.1589676265857587e-17  -1.2739074697651739e-17  -1.8342179977342947e-53  -1.2704130611920907e-07  -9.8450293085112721e-42  6.1607709215844968e-39  4.3230286252902092e-20  -1.4000170685164191e-08  -1.6787287749206710e-29  -1.5414107256268344e-20  -3.9043124976818274e-22  -5.2236329971756052e-23  1.2122912443205130e-26  8.1230252840407120e-28  -3.1670260871999724e-04  3.0500599569978301e-23  -2.6712759664369495e-13  2.0412860065977176e-11  -1.3946086537417745e-16  1.7536844242602701e-12  -1.4548051343832939e-13  -2.4351577723995460e-42  -6.4439125180589080e-39  8.5111689000918183e-54  6.5490819959832886e-42  6.6205524694800681e-26  1.8363280459070996e-33  -1.0477634188020334e-18  5.7454919516766005e-02  2.0736359063723698e-08  4.3635190966669145e-46  -9.7007420785484846e-13  8.5659617713797373e-20  1.6798991551052420e-31  -1.7739408019448786e-25  9.0263279688398787e-22  -7.8578308057113013e-25  -1.1196381108441477e-46  1.9589999278468452e-33  -5.5132145170191938e-37  -5.2335368851969914e-30  -5.9831997386742812e-34  1.0378897964292668e-35  1.2737617825774640e-32  -1.4577297226842030e-13  -1.5290012056478768e-10  5.2413529485543029e-15  3.9452436927093050e-06  1.9143826816114909e-07  1.7078303621500572e-33  -5.5670076924344994e+02  -1.5594862270166361e+05  -3.8684643008829115e-40  -4.8075786070693526e-08  -5.7196060336302664e-12  -1.7103350449293417e-13  6.2483262311710997e-16  -1.8238558998451668e-30  9.5975404702357644e-26  5.4090843177678581e-38  -9.2670816432825302e-36  1.5112827497493430e-38  4.3957331128422592e-38  2.5090394793652794e-39  1.1810975012715807e-40  -3.3597622177380900e-40  1.2229715663164833e-38  -4.1952512409448572e-25  -2.5961892649610994e-35  -2.8167002530359112e-15  1.4504194643086587e-02  -8.0502005815920086e+00  9.2235385959878769e-16  6.8827471738373973e-20  3.4928220024510120e-26  1.7434535226426496e-43  -5.7875612413335191e-48  -6.5845381014790331e-35  -2.3264199623253978e-19  -1.8435835683135906e-50  -1.8413063246882765e-29  -8.2573676172405226e-22  -4.2589038808130030e-25  4.7120642905470868e-27  -4.3602945108230315e-31  3.2794966753011046e-01  -3.0861265812748524e-02  -1.0064134293195800e-31  -7.6431995050591377e-35  7.5815573069649288e-24  -4.0581479631492594e-31  1.4096321944282707e-34  3.0544744728065252e-05  -5.3626893798111319e-30  -2.0222285508790001e-23  5.0958496629800140e-21  -9.6660874631137072e-43  2.3500690997014287e-25  -1.1265328698007079e-35  3.4542724536814975e-29  -6.1799015148225459e-33  -1.8852819388656161e-31  -1.5149626437972575e-37  -3.9466899669380704e-38  -4.7868585553786716e-19  3.4498115921564835e-10  -7.6469729135266630e-28  4.3170778929435758e-17  4.1705738055381488e-44  2.3801881831385665e-48  1.4290299132332433e-26  8.4035480710603880e-33  3.4289896398454586e-36  1.4683780018078219e-11  -1.4023132612777975e-17  6.4837754357332987e-23  1.8149784138006717e-36  -4.1231744925458443e-29  7.1935443334033686e-31  5.4081092766672382e-24  4.1543670122498320e-23  -3.2726228370967931e-18  -8.9325816386903429e-19  -5.0344839690700916e-07  6.7243704027401038e-32  -8.2898151194857766e-15  3.8252179174633261e-28  2.8063296057416177e-44  2.8997309563855391e-44  -4.3349584277139599e-21  -1.5022797671415319e-05  1.0131442650731985e-19  -5.4240414002206973e-22  8.7070517592321452e-04  -7.9194374251825694e+00  -1.3972466538121287e-20  7.4756476248169589e-31  1.4654326746141337e-30  -7.0524403835538451e-24  5.2943010533421803e-07  -5.3243955018447178e-41  2.2895226938916892e-15  3.7186242124268990e-19  -1.3065715411316851e-18  -1.9816337120807830e-11  -2.0746228576759718e-11  -7.0463616519454898e-32  7.1634025967149291e-36  4.7329748355488704e-29  -1.4095363574264284e-25  3.4166238456672022e-04  3.1998287481986825e-05  4.1393811189574658e-31  1.9468098660490302e-28  4.3928177622525322e-22  2.1617373276946429e-07  1.9958484058321191e-24  2.3776556947312629e-20  -1.6806611382625235e-08  1.2429245530014842e-37  -3.1046050375043273e-26  -1.9625645885903748e-25  -1.1270017570900948e-41  1.3503827464985224e-46  -1.5036313672885086e-31  -3.6573897366006420e-33  2.8864190108534278e-34  4.7554250217728745e-32  2.1982967265863043e-29  1.3735182507773596e-31  2.3670293602240699e-28  5.0851961323301528e-29  1.5172635246950652e-30  -2.2398294811044889e+04  6.6436014242892165e+00  2.3570955421041825e+02  1.5796737727381450e-31  -5.0345217617986768e-35  -2.7270268919537402e-35  -4.8049524278870202e+04  6.8308128343060496e-23  1.2371812623316418e-13  -4.2511256152567732e-14  4.5855933812786091e-18  -1.1756245773863286e-28  -2.6894201233178321e-28  -7.1355069470272420e-14  -8.2109657534881851e-26  -1.0551646099880932e-24  -3.0366638461842061e-36  1.0948196065246604e-40  -5.4749525291224229e-49  5.8503902491330592e-06  5.5734738659860754e-28  2.6932201789342347e-26  -4.6263514840592281e-21  -3.3215883707693309e-37  -4.0119223218618043e-25  -1.7485726280025729e-26  -5.6656255249968131e-09  5.3847314220407405e-23  2.0144749715831565e-26  5.6439220122557473e-33  -1.1343930292811088e-09  -1.3203451976188311e-34  2.8721671321080070e-33  7.8640218434908440e-12  -3.4263196892827379e-37  -3.0021721637721272e-05  -2.2978860645313630e-16  5.1334397769705873e-37  -3.9228145689854853e-40  5.1560248478113836e-28  8.1916933199845854e-39  2.3574000405662055e-17  1.6356771340720833e-15  9.1939624035596126e-39  -1.6568141751468748e-34  7.1995639804803908e-13  -8.6183719283997529e-21  5.6748951380165305e-24  2.0471034140696172e-40  -9.7089157738351410e-22  -7.0586454140494954e-40  -1.0388074472662545e-35  -1.5126557233153767e-20  5.6699837257360565e-37  -1.3176152942755881e-16  -2.6059792865687002e-06  1.8454506803148671e-06  6.6541601437619165e-03  -8.7930520262498929e-24  5.4685755047208935e-21  -7.6649985836947567e-13  -4.3196692649030703e-38  -1.1563189563020309e-37  1.8019259833539021e-40  -1.4849274332824803e-34  -1.3686711797530901e-53  4.0877762974626698e-32  1.9302614624936916e-33  -5.4470816400277340e-19  5.9018908718437010e-48  -1.7476122653578540e-20  -2.6780726847913825e-38  6.5147065876085708e-30  8.7203973551875580e-28  1.5408909919033048e-22  6.2318847582294733e-18  -4.2075165215932483e-03  4.6255812390251035e-44  -1.8747032239244559e-28  3.7145703749336535e-16  -7.8964416666182683e-15  1.2206106241572616e-39  -3.7895075855636644e-10  -5.1819431028629570e-10  2.5666482697699941e-08  7.2800992799216128e-12  6.1153269550230274e-29  -1.3084766959803616e-18  -8.4525042522050105e-26  -4.7330487965691459e-22  -8.2662516952788766e-30  9.9540355350939293e-33  1.1872765491176761e-37  -1.5003729970104968e-21  -1.0419349883427847e-15  -2.8344240067260237e-06  3.3557574371433107e-34  -1.2813626942672256e-08  2.9642449235598490e-12  7.0003778308098071e-42  -3.4479174535976916e-24  4.3820611414817267e-22  7.6501139246032221e-40  -7.5777316072812576e-18  5.4372078913632804e-01  7.1641334022906523e-10  2.8329833142370355e-28  -1.1384336325908201e-32  2.0985977243536021e-23  -4.3040664609151904e-30  -3.6562615268418399e-42  2.4288119148212978e-21  -3.0230383000783247e-08  -1.6357599910994207e-31  9.7886329329373586e-17  4.7799022845044601e-16  -2.8794258001047809e-14  1.6197561030085602e-31  -2.3975972786608763e-22  5.7105525820070087e-19  5.5668126015339413e-27  3.7761002716561127e-05  2.6918152660927936e-14  -1.4057906512039148e-38  -2.9892592331410654e-18  2.0591689157565328e-32  6.8119330479295621e-36  -2.5396126913684473e-40  -4.8278329582239586e-18  -5.5214620713647381e-15  1.0789449873224304e-26  -1.5266068041832882e-31  -5.5257489374000244e-37  3.3909212257740353e-39  -2.4727296277949267e-07  2.3824818168392556e-22  -7.5395360417245410e-37  -5.1516042784554458e-34  -8.8018397084796440e-27  -6.9945658625973903e-16  -1.2288328333075060e-28  2.4104919612675556e-16  -3.5601927934006009e-36  -1.4597072439563089e-07  -5.9707905570757857e-35  3.2429814517575829e-22  1.5390564645321467e-14  1.6173874053038569e-25  2.5878820169560322e-51  -7.6425123042954326e-12  1.8863059942795964e-30  -5.8416525247326003e-20  4.6893487768623052e-11  9.3992018384224247e-30  1.8634646990812644e-24  1.2439937344844966e-10  -1.1460790744000349e-37  -3.3928479455427758e-46  3.4285935935373238e-36  -2.1465678396403035e-39  3.9677769765388586e-12  -4.9556155032676968e-06  1.3147248437442148e-19  -5.0284830462917032e-07  -6.0947988646642622e-30  -1.4570684983168810e-20  -1.6349098100018684e-13  1.9668335677498104e-26  -3.1390240875188700e-26  1.5517770210120664e-16  -3.8781065621717706e-35  4.5901149031857624e-09  -2.4785154431688689e-22  -1.7710775619283366e-04  -5.0286783249659072e-25  -2.9655913659072710e-08  2.8629524428916750e-09  4.7128903121895220e-15  2.5483327199638079e-19  -1.0690963565649537e-17  -8.6655163047442428e-28  1.7636034830468299e-29  -3.0766003411866622e-26  -4.0115984739420582e-03  5.2089576136637532e-38  -3.5139849898970392e-43  1.7978424877859607e-48  -3.0688065577747082e-34  -2.7587811197049708e-15  -2.1077617858884410e-44  1.6161909865294945e-06  4.4193746023335925e-13  -1.3057663013725124e-14  5.2407441537414237e-32  -2.7095666052477275e-20  1.0268262416578108e-19  -7.6313957797002602e-37  -1.4779424516209232e-21  7.3702375559372629e-40  -1.3654989838063740e-36  -3.6705772115534839e-27  9.3366289160556445e-40  3.7817947619881424e-27  -2.5379702821487659e-43  -2.1956255990508338e-30  1.5671670948330453e-21  -1.5894230724518516e-18  -2.8479070779563641e-02  -2.3134454102902519e-35  -4.3243779803413475e-34  -2.2357113347115441e-38  -1.1365421816344627e-10  8.3447381743660213e-25  -2.3780294487408013e-24  -6.0416470668842496e-27  -1.6168348142157802e-46  -1.5351545636545725e-10  -1.3709893613396792e-33  -1.0691434888861785e-11  -7.5883380804827142e-11  -1.5294774894602169e-27  1.1852401409211015e-21  1.9364374788641301e-28  1.0251863205803060e-37  -1.5108214898222053e-36  2.1102765165812681e-12  -1.1059454110987739e-09  1.6288627680289539e-20  4.7675442958227293e-36  -5.3246790226327276e-32  8.0256906829374797e-26  -1.7559175571882602e-23  1.0778459326666957e-25  -3.7756386802128648e-34  3.6815291510680482e-27  5.1680039565044797e-40  5.7261480456041343e-32  6.0215874912953464e-15  -1.3404324877709410e-38  1.2818570289145053e-32  -5.2356763683993218e-31  3.3437928449917872e-29  1.6219516515592684e-44  4.9435905236397190e-43  6.2256393787164135e-42  -3.3990096179119749e-33  2.4271524141324983e-33  1.5532933090740258e-31  4.7862403893493001e-11  -1.7482880610142103e-13  -1.8521227930108752e-23  -1.7490698595126702e-40  -2.3590776055842143e-43  1.7814369143461172e-24  3.9747492091739656e-48  5.7170377873967964e-47  7.7462096974866149e-18  -1.7405530891528391e-19  -2.8274110354403019e-32  -2.7197970496788254e-30  1.1840447053731865e-25  8.1940794983607703e-10  -1.3975789828661386e-35  -3.6339357708635383e-37  -1.0631811195006385e-30  -1.0599793536114406e-01  -4.2160590463860274e-02  -3.2319698947183510e-03  1.5582240367990490e-27  6.1385565104881591e-32  -8.9403244671334488e-31  1.0340346263618073e-07  -3.1926064086312740e-38  -5.3771448698849805e-33  -3.1053115508710387e-18  2.8458642577664713e-23  8.4940545322985630e-35  4.6747362124089954e-52  4.1782682247983447e-26  5.8916303924652027e-43  -5.9622773520404274e-48  -2.5566946269600460e-06  -6.2488882793180867e-20  -1.4400740401963424e-26  5.2894211460808734e-34  4.4152755104798100e-39  5.1605547128476470e-25  -2.5651118724060263e-33  -3.0122320338213398e-05  5.1788581129105006e-22  -1.2540244253203420e-47  -2.5861719140528808e-20  -8.5470706150891762e-10  1.0998098032179819e-17  1.3647812674357335e-31  -1.3567869719259956e-14  9.1862697229766136e-18  -2.6959830280604328e-13  -1.0308169297551724e-34  -7.8960491735429968e-28  1.3735342437882407e+00  -6.9900227291495001e-16  -3.2390528592098255e-08  -1.5345016240750149e-05  -1.0268110283536093e-07  5.6478935928191803e-05  4.6135802472754233e-05  1.7422802809046027e-36  -1.4171114812714351e-38  2.6389764865388959e-22  -6.8558959458516533e-20  1.2381789033670127e-18  -2.0223271937214074e-16  -8.8502235751483170e+01  2.2692951844716617e-33  8.3700452604914676e-35  -6.4107391043981650e-12  2.3034037845081136e-42  -1.7717772706861564e-33  1.6787447273144317e-44  -3.3903509544283564e-31  3.4249956077599070e-44  -3.2841069783421791e-13  2.2854273498803432e-38  -1.9075121324748598e-20  2.3423824840881739e-36  2.4208882965520427e-37  -6.9386604349974823e+03  -6.4713626011011088e+06  3.1251469391621370e-40  -3.5311066690953713e-14  1.6125087680003303e-49  4.2660578217129364e+02  2.1370168837609706e-28  7.1497764126104401e-34  4.3441367925123954e-07  2.3193985437242778e-07  -1.9851124972255524e-24  -2.4762001286195652e-34  -1.8467264202628013e-22  -1.3138007784853793e-11  9.5191775175332172e-47  6.1440490249776296e+00  1.2324237895382323e-28  -3.7377030021272179e-28  5.6581739022403724e-12  5.2457116321540292e-32  8.1527789900718260e-04  -1.1790104977520299e-21  1.6211849189511491e-32  2.1550448247862138e-29  -1.9095740728814477e-27  8.1117354776199822e-42  -6.2706598986380583e-21  3.2836709788394340e-28  -1.1602058311986989e-15  -2.8127779367226809e-29  3.1560431195047097e-31  2.6607276037929095e-35  2.1325097890377022e-37  -1.3317361289796627e-30  5.6296419873233263e-14  5.0201169482871312e-40  -1.5692349386527868e-38  6.7495784881590282e-13  -8.4047945641388579e-51  6.2618729049870919e-38  6.0961239387789755e-49  -1.1254267320759645e-33  1.6820632055052069e-35  -2.1663421142821448e-40  -3.5778724394140946e-20  1.3090857771127141e-38  5.8979098823125650e-42  -6.7994109007977360e-21  1.5059049150145046e-21  -9.0753469311337534e-39  1.5190853732751056e-38  -1.3184806269996283e-40  1.2241939697285668e-11  2.9003759078044628e-11  -9.7463928476192609e-15  -2.5591213166297770e-41  1.6366146500540671e-05  1.2401514331543018e-09  2.9328063368344243e-23  -1.8743886888024003e-24  -8.3756446513098562e-37  2.1842136251560309e+01  1.8780749049439751e-31  7.0088860065027099e-35  -2.8843221251292045e-05  -1.7451028899962004e-17  -5.2151263180754897e+04  -1.2773063215279709e+02  3.0171531729867239e-46  8.5430492061238378e-52  6.2805770425701346e-55  2.9101187732909675e-54  4.5408020509101474e-17  -7.6175460782669524e-41  -2.0805052983955355e-01  -1.6836969592551450e-45  -1.2136426001767740e-49  2.5075464598642373e-36  1.6976118300982365e-27  3.9481171556993307e-35  3.4536987471119741e-22  -6.4160133218127765e-38  -7.8966855695511058e-20  -7.4190370290984132e-40  -9.2117149009431515e-05  -1.6697691215406279e-05  1.1522586583501548e-05  -2.9142751140407877e-40  2.4857888718749888e-02  -4.6407213590266118e-11  1.2539171194600473e-03  6.2924095158689816e-30  5.9678272244117781e-16  4.6232215203238471e-14  -2.0374242426228786e-31  -1.0437295858632027e-18  5.2469268017877857e-19  -3.3468856507834067e-21  2.3966395282353184e-16  -1.5235912442271207e-03  -1.4895008664576267e-02  -5.8823848304702285e-35  4.8006211371405201e-32  -7.1944783189656707e-29  -8.4019096032400399e-32  1.8118836624510277e-07  -1.4235462020464404e-38  -1.6268650772253963e-19  -1.1064654049785383e-30  4.6513143939501927e-17  6.5955420856226369e-09  2.2939222860713883e-24  -2.9947740037112926e-28  -1.0406804733224029e-21  4.1581589743410376e-13  -1.6806078707474035e-13  2.3077074000649749e-27  -1.1962915404779017e-35  -3.0998273496694054e-08  1.8578033862659707e-33  8.8547605960269471e-34  -1.9879479105944110e-20  2.1013925728134723e-22  -1.2036374311900134e-08  -1.5750538294655706e-26  7.5583356131036663e-06  3.7424297513434302e-38  -3.9529002781926498e-23  -4.1902789477530036e-24  -5.5118211304376900e-37  1.9850057091123042e-30  7.3170869877709920e-29  -3.7271911234137791e-34  -1.4757431849191575e-30  -1.9291831157253682e-31  -1.5863608905852349e-16  3.4578416664547813e-32  3.7251104469432518e-25  2.5983401839771946e-17  1.6419146290427439e-25  2.4277026300116289e-26  -2.6432340546473708e-39  -4.5470283050546528e-20  -3.8829797840981390e-26  6.4664143587060283e-28  1.7363317682696294e-29  3.1999146064068168e-30  1.2312669588993721e-20  3.0350955605117791e-21  1.7615274107754684e-22  2.4712796759951901e-15  -4.4749707077602647e-30  -1.2844951774019477e-36  -3.3810489231692523e-37  -1.6859496052144070e-32  5.9822573546856724e-30  -8.7720866925827774e-33  4.2105575045018816e-41  -2.8218653367057563e-26  6.4939179663089052e-19  1.5126467724221945e-37  -1.4732088047314647e-38  -5.1910638721044866e-33  5.3094653150501007e-24  -5.5013876592349608e-18  -7.7298762280012120e-13  -1.0850236041114667e-25  1.9832230257680403e-26  -8.0833051060765068e-09  7.0519892830951856e-17  5.5553212501097875e-42  -8.1267091192210453e-07  1.5398223499744838e-24  -4.5752602761131012e-42  6.0934871968863506e-42  -4.9921665943686263e-47  2.6034988163972656e-33  1.1525998506543798e-36  -1.0688673333649990e-17  -1.0329146099861286e-26  -3.8614841430793009e-22  -4.8740170575942829e-16  6.2309646315916472e-34  -1.4878555446347224e-36  -2.6402037467286946e-25  8.7716065153330963e-32  1.5829538042800513e-15  -5.4244871213301806e-24  1.1596329659716150e-18  5.51333237