<?xml version="1.0"?>
<VTKFile type="UnstructuredGrid"  version="0.1"  >
<UnstructuredGrid>
<Piece  NumberOfPoints="6486" NumberOfCells="12696">
<Points>
<DataArray  type="Float64"  NumberOfComponents="3"  format="ascii">0 5 0  0 0 0  5 0 0  5 5 0  2.5 0 0  5 2.5 0  2.5 5 0  0 2.5 0  2.5 2.5 0  0 1.25 0  1.25 0 0  1.25 5 0  0 3.75 0  5 1.25 0  3.75 0 0  5 3.75 0  3.75 5 0  3.541666666666667 1.458333333333333 0  1.458333333333333 3.541666666666667 0  1.875 1.25 0  3.75 3.125 0  1.284722222222222 2.326388888888889 0  2.683189655172414 3.767959770114943 0  0.9375 0.9375 0  4.0625 4.0625 0  0.7252209595959597 3.026357323232324 0  2.763480392156863 0.9129901960784315 0  1.875 4.345238095238095 0  4.345238095238095 1.875 0  4.192708333333333 0.8072916666666664 0  0.8072916666666665 4.192708333333334 0  3.368055555555555 2.326388888888889 0  0.6837606837606839 1.738782051282051 0  3.285485245626782 4.324328415208927 0  2.551239698778062 1.693130150610969 0  1.827256944444444 2.868923611111111 0  3.464875022477093 0.6813924607921316 0  1.942880513719175 2.059558626187995 0  3.04563492063492 2.971230158730159 0  4.375 3.4375 0  2.13639445139758 0.5994472256987903 0  4.272228422619047 2.606956845238095 0  0.625 0 0  0 0.625 0  5 4.375 0  4.375 5 0  0.6400043240752655 2.384646170113389 0  1.347691225855598 1.660875475110776 0  3.515783617857982 3.723905460714006 0  3.125 0 0  1.875 0 0  0.625 5 0  4.375 0 0  5 1.875 0  0 1.875 0  0 3.125 0  1.875 5 0  5 0.625 0  0 4.375 0  3.125 5 0  5 3.125 0  1.489644181965304 0.6007147273217681 0  2.054597701149425 3.742302955665024 0  2.662520990197781 4.39452575763237 0  2.415835363784578 3.165530021913244 0  0.8679986894865213 3.602373689486522 0  1.267459753787878 2.886186079545454 0  4.099702380952381 1.365327380952381 0  1.316964285714286 4.438244047619047 0  3.7915135293491 1.959691594758709 0  2.875141124191255 2.118761176511833 0  3.00418010501169 1.397414179299248 0  0.4081721322167092 3.410647930198662 0  0.4166666666666666 0.9375 0  1.014190407998288 0.4422301359994293 0  1.383260571305984 1.162718286082048 0  4.53125 3.90625 0  4.453125 4.453125 0  3.772848162504192 4.48678272083473 0  2.8125 0.404329517041716 0  0.4538690476190476 0.4538690476190476 0  2.305461739347387 1.04517007574828 0  3.771263799175824 2.624190260297553 0  3.229617768018734 1.809956994202883 0  3.780190884441317 1.025307111692601 0  4.646337365591398 0.9375 0  4.537623451379149 0.4609485750426037 0  1.200477888421151 3.934852888421152 0  0.3536626344086022 4.0625 0  0.4623765486208503 4.539051424957397 0  4.0625 0.353662634408602 0  4.560525106689535 1.390989100915847 0  3.958439078571988 3.619844539285994 0  4.672619047619047 2.1875 0  2.1875 4.672619047619047 0  1.862808494877602 3.325947624431087 0  0.3268135998175443 2.8125 0  4.674181280189791 2.8125 0  2.283233994935276 4.138623547175983 0  0.9375 4.677879119362977 0  3.08488061581743 3.469889594488945 0  3.113427375573758 3.913955730709506 0  1.652847799068813 3.950848935641292 0  2.932652662909449 2.550542739521724 0  3.311350648514189 1.088831994878698 0  0.6770833333333333 1.295851139601139 0  0 1.5625 0  1.047214787840024 1.96818092308125 0  4.183331482095785 3.03958703580843 0  3.4375 5 0  1.071307777252521 3.246275861010018 0  0 2.1875 0  0.386576856303419 2.03125 0  1.713862716483534 2.439783116849799 0  1.775396256975935 1.665976816304977 0  2.231236976948428 1.443917394671254 0  2.373900732409897 2.086930260150635 0  4.114918237574474 2.221646174618671 0  3.661302567757379 4.099620139144836 0  3.378215938602977 2.734494874063393 0  0.9842097536079312 2.597286741306247 0  1.642795138888889 4.672619047619047 0  4.0625 5 0  2.099458800960004 2.567446522665629 0  2.616202751603346 1.297895893940078 0  5 4.6875 0  0.9937554350075428 1.512592975947215 0  2.8125 5 0  3.002695327068194 4.614055254615477 0  3.205627424097207 0.3852436382721472 0  1.678616581261621 0.927556612265266 0  3.365326698305438 3.196943731162083 0  1.554834936170314 3.120009882655813 0  3.108408340729323 0.7797187795784133 0  3.684368918102174 0.3728877601163941 0  2.716214835303553 3.39276351922003 0  2.37718583984784 3.551973401560441 0  0.3750662445374837 1.52191994866787 0  2.679073487930202 2.844160731602957 0  1.557635869750078 1.991068682985722 0  1.812595698561088 0.3839273018252746 0  2.512014721281916 0.6320641118792227 0  2.1875 0 0  2.349973454443689 0.3189980586887866 0  4.6875 3.59375 0  4.636052949022233 3.178355898044465 0  4.6875 5 0  3.345485909784306 4.665765449101383 0  0.536727472389443 3.749603193819277 0  4.349541499640203 1.116201826262156 0  2.886559045931982 1.774013674579691 0  0.6770833333333334 0.7142857142857143 0  1.5625 0 0  4.120842096538671 4.628726497527622 0  2.176157474177018 1.793470423744689 0  2.175650736889416 2.909863021769539 0  4.036616464259081 1.709699085170981 0  3.887974623473683 0.6492597046022868 0  3.4375 0 0  3.70675699592552 2.289666624772415 0  4.697265625 4.208984375 0  2.815177577303495 4.085937578239174 0  4.672619047619047 1.730733296184288 0  4.6875 0 0  5 0.3125 0  0.3125 5 0  0 4.6875 0  0.3276089296588581 2.484526834811734 0  0.712433309515852 2.065138854645612 0  0.6376435912223634 2.711473454001295 0  1.184991292170422 0.7222504400947201 0  1.31884329779317 0.3206944232264773 0  3.683609198994263 3.44428698533042 0  0.3125 0 0  0 0.3125 0  4.231797269642997 3.789141808928991 0  1.564375596050781 1.425998687184973 0  2.007640894175573 0.9032106925568466 0  0.955125897558294 2.276666098587227 0  1.43898735721003 2.611310720271951 0  1.954491523717513 4.040700257877075 0  1.752947649777421 3.652439445419346 0  2.509575750247638 4.678021307664052 0  4.687194709705067 2.499965519538002 0  1.5625 5 0  0.9375 5 0  5 2.8125 0  2.1875 5 0  5 1.5625 0  5 2.1875 0  4.0625 0 0  5 0.9375 0  2.8125 0 0  0.9375 0 0  0 0.9375 0  0 2.8125 0  0 3.4375 0  0 4.0625 0  5 3.4375 0  5 4.0625 0  4.010848109290813 3.306446973933037 0  0.3077461147713075 3.119700563473354 0  4.6796875 4.6796875 0  2.333079012424948 3.845757959077508 0  0.7829771267899832 3.317744656243421 0  1.159100632608513 3.532487125138763 0  0.799066251840424 3.893573750162776 0  1.57326499580282 4.255438189102632 0  0.7309366047093668 0.2991402264438908 0  0.3054777494262156 1.223275888123843 0  4.027475154280377 2.78211326942427 0  2.35270874745988 4.426658168476266 0  3.474236283732569 2.021154281686229 0  4.401414236174444 2.329446628171927 0  3.39403781747337 3.987097102903034 0  1.077524329801934 1.214100792470484 0  4.065611571711903 1.066085524514197 0  2.165399002716117 3.335637450367864 0  3.007639563081306 1.093684039371638 0  4.030818285732145 4.351883315180857 0  3.504115222530889 1.739284194222036 0  1.224503368215566 4.712091441401919 0  3.805634204685714 1.321528442399996 0  4.319233123479386 1.573547993867769 0  1.024007670021325 4.394604704797005 0  3.776400432023095 3.839003324979723 0  2.991819819453308 4.320567175146181 0  0.9782797534072181 2.886406017887129 0  1.763835134082104 0.6602345487826022 0  3.765182288741625 1.631193038541544 0  2.267959593989681 2.345053543725764 0  4.412434895833333 4.168294270833333 0  4.4072265625 4.7255859375 0  2.791493971314009 3.11210833271929 0  3.408766223032414 3.469500900677365 0  1.915147569444444 4.725484476461039 0  2.070301968506271 0.2605666686358055 0  2.767932250651506 1.530295992695836 0  3.280065043173439 1.364863281105779 0  4.45101570110842 2.974157152713635 0  3.521928862999512 2.96990445010402 0  2.552921961347576 4.008414007169315 0  0.2682955376854191 3.657555015841003 0  3.084522868361304 2.310593316718068 0  2.669255823227708 1.939379494498064 0  2.615884629473921 2.238841231570381 0  1.405652091971449 0.8877813821442277 0  3.25151486618811 3.68536115104276 0  1.963741569810629 2.331207252264507 0  4.017297980292599 2.486269171379106 0  3.869168920841219 4.748188103831625 0  3.596868753579134 4.77342723825056 0  2.41262958240343 2.764128584995838 0  1.266750578673391 1.404747710001619 0  1.559243962241121 2.85146506328516 0  3.128799423834764 2.052081657715259 0  0.6770833333333333 0.9778025793650794 0  0.2083333333333333 0.78125 0  1.978224492765132 3.087074731032578 0  4.051448850909273 1.969392119104174 0  1.320577095006813 4.172234780971559 0  3.214261103850064 2.534397293281829 0  0.2635729089754111 1.779234736680035 0  3.510775680035133 4.460728640112889 0  2.603081405968802 0.2432579385496493 0  2.866341315154884 0.6662105505481998 0  3.000919221100777 0.2270278495648781 0  1.298858304121393 2.05917319923859 0  2.020292299736597 1.589794568392338 0  0.7401688396476035 4.470780315741533 0  0.6721783535561408 4.733125588707921 0  3.753712482075402 2.874301339727514 0  3.557348205914658 2.491958694539413 0  1.094565978195436 0.2011034254079851 0  0.9338148378011396 0.6833568465908735 0  2.945530578578538 3.701798332963805 0  3.111707186654356 3.216904195825605 0  1.341791111822685 3.293123262233967 0  1.632939924064587 1.184895891095613 0  0.6335477978936732 3.517393619499591 0  0.5576014611130192 3.210998966942492 0  1.564344196470102 0.3630498725895039 0  2.75362450242839 4.626680495816594 0  3.571304405229554 1.192452351107437 0  3.522934592621944 0.9359134489437148 0  4.453125 3.671875 0  4.765625 3.828125 0  1.055906321410838 4.14310472322957 0  4.795146539102229 0.46875 0  4.767156345199235 0.7178596932040019 0  0.2048534608977711 4.53125 0  0.232843654800765 4.282140306795998 0  0.5393715189906129 4.270810883024032 0  4.329922600274667 0.2750645887059072 0  4.275515096738972 0.5448389557295173 0  4.477747423652795 0.7252838358993123 0  0.2002829820452772 0.46875 0  0.4352678571428572 0.6956845238095237 0  0.5007241582667088 0.2123388122114133 0  4.672890923830735 0.2500902110494848 0  0.4308009280819452 4.783624996516437 0  2.104871305393774 4.438653689007242 0  0.2274454167838428 0.2274454167838428 0  3.446466574593436 0.4359605369011901 0  2.12354112127588 1.217588426759619 0  2.309175236825235 0.7888355970690434 0  2.556178570281936 1.054299163237582 0  0.578683248637
[...]
<PointData  Scalars="f_16-3"> 
<DataArray  type="Float64"  Name="f_16-3"  format="ascii">-1.0001347336012476e-47  -1.2013950345438056e-02  -2.2130279721055412e-44  -7.7868295118340888e-69  -1.8139793301445880e-19  -7.3933133151256316e-52  -1.9532493461695320e-51  1.2992955617638967e-19  1.0107328357552502e-27  -3.3374368131655585e-08  8.7636330151474666e-11  2.2999227479996408e-49  -8.1593301120126599e-33  4.5101674355091729e-50  -5.3388868516346969e-31  2.6107470227677490e-59  6.1538123892709412e-59  -7.1372719470986596e-35  -1.4585255470906744e-32  -1.6145006875978447e-16  -2.3265195180574498e-43  -5.8852089231522320e-19  -1.3354875133989209e-41  8.4410219660120036e-09  -3.6993148843136136e-54  8.1596376859648335e-26  4.6158476940092102e-26  8.5159150980294321e-42  -4.4906454354061322e-45  3.3368716398314420e-42  -6.4928624535180925e-40  -3.1433724298344107e-34  9.7304664110196450e-13  5.4610905479153314e-49  -1.4940000814246230e-24  -6.8169754898760506e-26  2.0657235124495749e-32  1.2133263711820325e-21  -1.4329619963845033e-35  -2.9015324716036580e-50  -3.9769584623769989e-19  -1.1751711535028220e-44  2.7581844139539796e-06  -2.2542493726733118e-03  -1.1141724157540692e-63  -2.9521043935769060e-64  -4.0007266355959952e-18  -2.1403789567122444e-14  -5.9319318166495362e-46  1.0396713291524642e-24  6.3315789268413897e-16  3.1920360389312989e-48  3.5608301569208749e-39  -4.2783417791973302e-51  -5.0070288114096859e-14  -3.0558138994903140e-26  -1.2567958508913595e-48  1.5126528643526428e-45  -6.7337685596984320e-39  6.1404832857480773e-55  1.3227467392469503e-54  1.5679738966581098e-13  -3.4435660308741631e-36  -1.6676045374376663e-46  1.1635489671873572e-32  -1.1601492543337624e-32  -1.4964191227078744e-24  1.7385322900229374e-40  8.8912522289387387e-43  -1.5442984182778846e-39  1.3776944713722586e-30  -1.1850286175496087e-29  4.3101401313124914e-31  3.4249975806554471e-04  -1.4556803588631699e-09  -6.8824159270769691e-12  5.8610014566762663e-57  1.4536425247726467e-59  5.5033700330487380e-54  -3.6961472107849638e-25  -8.5949081017949768e-04  -6.9677560440848913e-21  4.2842723280405514e-42  6.3201426652978934e-32  5.1567947377334567e-37  -1.3041535367891411e-44  -5.1565034579331736e-42  4.5010748653303658e-38  -2.0605721978467502e-38  -2.0551615096512006e-42  6.0626306640222614e-38  -6.4601892460219433e-46  1.0629462470843154e-49  -2.6599581615855328e-47  6.8006035143910571e-47  9.1888920294377753e-31  -7.8930372526450383e-24  1.3332534085226038e-50  -8.7514075842138364e-42  3.5538419728797161e-46  9.1872551375574937e-41  -3.4843111657970184e-44  2.8633718570002509e-36  4.5982149925934164e-34  -7.9396645163779419e-32  -6.0974577327458738e-09  -7.9948020572982075e-12  -5.3876878957331391e-16  -5.4064711913848168e-47  -1.5051429905156697e-57  -4.5708168023036727e-29  -1.9050751183139546e-16  1.2077713624892346e-13  -5.4504466653676495e-23  2.4230702172368469e-17  8.4748890954516987e-22  -7.3965645771225113e-25  6.0444798860820611e-42  -3.6252138658157519e-50  -2.3686039536993069e-37  7.0681247280178591e-22  1.4066335027649151e-44  -1.7817144941891313e-59  2.6653511485042175e-25  -1.3428955050274270e-25  -3.4733253378240076e-67  1.1292946493915557e-12  1.4179927621517610e-53  1.4615417926577251e-49  8.2157998265383933e-28  8.1511573181734243e-15  5.7164941061852565e-41  1.4380572400964192e-27  6.3214129843588411e-30  -8.3291630842890544e-32  -2.8733520956282658e-36  -1.8016448385842472e-37  4.4531653845976274e-09  -1.3425657397278557e-33  -9.5573067850343807e-18  -1.1464462437042056e-17  -1.7397990328908744e-22  -3.4113270863960741e-18  -9.9834877101989866e-21  7.1511878209377604e-55  4.7148346655309353e-52  3.9879659681014540e-66  1.7047331657682724e-53  -3.5980849212649124e-35  -5.8654063324534038e-44  4.0254825542615266e-27  -6.2411358629442301e-06  2.5905436886394351e-13  -1.2350552752832602e-57  -2.9598242953039835e-21  1.6250925304973808e-28  -1.6328325229174924e-42  -1.6051244325680766e-35  -5.9769535658684692e-29  2.3460980115921644e-37  1.5515010576322899e-59  1.5439101137313421e-43  1.9989182719741829e-47  2.7465114407165151e-40  -3.5673679550652756e-46  -9.0372448731846792e-46  1.1046866147892242e-42  -3.7292735706054553e-19  1.5781433762096773e-16  8.9630284943841362e-22  -7.5624232495477988e-10  2.0284851455972993e-12  -9.6190676777888986e-45  -8.5153915885018811e-04  -1.8834734178782947e-01  -4.9750757330789272e-54  2.5397545927967859e-14  -7.7411351042622292e-18  -8.8324636509518914e-19  6.3749205922892426e-22  -8.3787797702893008e-40  -1.6996940665262390e-33  6.5421477471192040e-49  5.9549870282692476e-49  -2.2111646393831485e-48  3.3423756542050219e-50  -1.8510412050879727e-53  4.1481708054294266e-51  2.3063994499407529e-52  2.9703542679203251e-51  2.1467722984828740e-34  9.1145222291831747e-48  7.6300602422597841e-22  2.6215861901729359e-08  7.1704140707773818e-05  -8.7636955263713915e-23  -7.3195569515149369e-29  -1.4606375834105882e-36  -6.2703299247346546e-57  -1.4365506941406147e-61  -1.6562796888391460e-46  4.8643746159982645e-28  1.1536454389212305e-63  -2.4643161513617192e-39  -1.6490297208776216e-29  -6.7431176438667271e-33  -5.6194664321615739e-36  -1.1691144972285675e-40  1.0502168941174564e-06  1.2793288397386333e-07  2.1184511393259016e-45  -2.8976811307372948e-45  -1.4341084737810855e-34  -1.5408126596869064e-43  -2.2613241918341908e-46  3.1532507467237358e-10  -7.7815587746643654e-40  3.0449872696957928e-32  1.0994900737425918e-28  -4.4678248386912580e-55  -1.3166215071906017e-34  -3.4946478310922594e-46  -4.8153481855781957e-38  2.4421663282415740e-43  -6.2992801161088063e-42  1.3439149110623529e-48  -1.0957564007270528e-46  -7.6205023619775617e-25  3.2329778946875550e-15  2.5308570013777561e-37  -4.4643049535830869e-25  -2.7310752053294511e-57  2.0922597598071522e-60  -3.1471641555498747e-35  2.1360639769676180e-43  -3.6585173650312889e-46  -7.6059385237222686e-18  -1.1783198201771566e-25  -3.5813225179978399e-33  3.1366799706746734e-48  -6.6023355235624048e-41  -3.0044774905919803e-41  -2.2866840001805983e-34  -7.3743430324493741e-33  3.3099529407983550e-27  5.4678921271253722e-28  5.7230275338931410e-12  -2.6062819347943069e-44  1.0164284987511745e-21  1.0637838986575180e-40  -1.0079903858012449e-56  -2.6518831507898483e-55  3.9036356576645155e-29  4.1708302776882605e-13  -1.9395165786617848e-25  -3.8537051854998879e-31  -3.3660158701050793e-06  7.6400219857891141e-04  6.8231811839772679e-29  7.6781592674469667e-42  -1.0210643845702443e-40  -7.1062737162035938e-35  2.3638229748378096e-12  -3.6512705490113696e-52  -2.3650366678610666e-22  4.4701880225791704e-27  -1.4879667574228697e-25  -2.1761114196080256e-17  2.2219322352279545e-18  -4.7814742786291833e-42  2.6033092162966678e-45  3.6060353597048855e-41  5.3741408367622192e-38  2.2223095822700178e-09  -1.2912853417261007e-08  4.3180154563114618e-41  -1.7553230230436631e-38  -2.3132171988448698e-29  -5.4036540778959383e-14  -2.5989914371315062e-32  -3.7488530420280587e-28  -8.9817061673922365e-14  -3.4663328516327171e-48  2.0636362267686070e-36  -5.6738097611164206e-35  -7.8789583150737063e-54  -8.8952080802906292e-58  1.2547050532113008e-40  5.2138693469747113e-43  -3.9374348787104513e-44  5.6754039679274224e-41  2.7168067202198330e-39  2.2404760198806390e-40  -5.4732457464091668e-38  -3.2333137110161428e-39  1.1990717559906603e-40  4.5958157775727343e-02  -3.5802225405921892e-04  3.9964867234578994e-04  4.5144140260433098e-41  1.4790185009882924e-45  -5.1941900657292978e-45  -8.2822929724337579e-02  3.6757658557572574e-31  3.8616422734749933e-19  -9.5419106565573703e-21  -3.9533270286890699e-24  2.1670321583777053e-38  -1.1805060473560928e-38  1.4598100077617703e-20  2.9612267966751126e-35  3.2313132865977180e-33  -2.5117483213853590e-47  4.4474440810675085e-51  -1.9399397463253397e-62  -1.9775092032427186e-10  -3.4593985395369195e-35  4.2391409819677461e-37  2.1882623502520553e-30  -2.3984781938109975e-49  5.8061867734705053e-36  1.5059140952141015e-35  7.3787345100737132e-14  -5.8833571164435598e-30  5.5732749118905825e-34  1.6632686216008639e-43  -7.7473473593341111e-15  -1.6587252732534672e-48  -1.3097692142803188e-43  2.9648330727155371e-17  -1.7594833063384154e-49  6.2180169634934635e-11  -8.0942666750786321e-22  3.0521576505585456e-50  -2.1233806797253367e-51  2.6167155790527798e-37  -3.1497313762362306e-50  1.4636880557632167e-24  -6.5560505480985135e-22  2.7660776985050617e-53  -4.7333664542887917e-47  -4.8776943728977471e-20  -2.7893844602490372e-29  1.5717392502146978e-33  2.8070878179944747e-52  -3.8559002056133506e-30  -1.7083694066339573e-54  5.3441510488481697e-47  2.6143851550506953e-30  -8.6505371016141666e-47  3.1402842162293637e-24  3.1235364868038852e-10  1.6770716974859848e-08  3.2759909211412974e-06  -1.3714204909468229e-32  2.9038672279652464e-28  -1.5059898137315775e-17  1.0297501270541221e-51  -1.5970707377735338e-50  2.4219698201535937e-50  -5.5417149778215500e-44  5.2349239924914554e-66  -3.9792249654544842e-45  -3.4032880414477590e-46  7.9610635027526758e-27  4.8476634262384699e-61  1.7922992241793433e-29  -6.0476297345123091e-49  -1.1857967981103025e-38  -9.9957393574857486e-37  5.4753800516178266e-31  2.9072591091076676e-24  -3.4722896884553728e-07  5.9275360871325979e-57  9.6754045213477551e-38  -5.8950734875733851e-24  -7.4801833366826198e-24  -1.6606684342439193e-51  1.3024534938127745e-16  5.8394809911391317e-16  -4.0541713381165393e-15  -2.8724988947964670e-19  -1.3473473234334945e-38  -6.1501835244850976e-24  1.6556107034614408e-34  2.3510949339665566e-30  4.2107830572437254e-39  -6.8597730587512158e-42  3.4412385066566919e-48  -4.8566216343330427e-29  1.1165494234471309e-22  -6.9683915395548001e-11  3.0636629244893926e-42  -1.5427757653526604e-12  1.8320308596901609e-18  -1.8808583968360708e-54  -4.9446041343596833e-33  -1.1193633627594925e-30  -1.2654761128639218e-52  2.9076544203415589e-25  -8.3748952148643504e-06  5.1352531092852867e-15  2.9579574655542055e-41  -8.0894480816259594e-46  -2.2360735615797094e-32  -2.6818628995589053e-42  7.9783195352141038e-52  -5.7684573243256659e-28  -2.0236027238697982e-14  3.5101805442395903e-42  -3.6161234051521583e-22  -3.2814903168384902e-24  -3.6063182982464540e-22  8.7506214831683927e-42  2.7966114710913131e-32  2.3696346896989009e-27  -1.9211656889170581e-39  -3.5880835970481068e-10  2.6719253793003513e-18  -9.8657162273607759e-49  -1.5105754570319449e-26  8.6290471641034751e-42  -3.2423644125524266e-48  -1.6958778536690464e-49  -3.4843460738587529e-24  -1.2256038105358198e-19  -1.1597064851268266e-34  5.3832291234944010e-43  1.0947907964231943e-48  8.9417525177448836e-51  -4.6847619702224530e-12  1.5815689053545970e-29  2.0206450308086116e-46  3.7105878402212830e-44  -1.4030176591648080e-36  1.3133998586955306e-22  1.8406562080921641e-37  3.2114710194822638e-23  -1.2363078154827081e-45  -1.6031618741890812e-12  7.9093626174697262e-46  -1.3531255053816586e-31  -6.2764045391101144e-23  -3.9247213023717893e-36  1.6011169345551795e-63  7.5584251210165839e-17  -2.1434624463379659e-41  1.1535730751566446e-27  1.3576369356383897e-16  -3.3384923933627061e-39  -8.0167091097001266e-34  1.2767859203519997e-15  -1.2137780834195268e-47  1.9661276310183018e-59  6.3300704956575030e-46  -2.6879178606236672e-49  -3.1960116245535037e-18  4.5494996310718162e-11  5.9779122425662935e-29  1.7432981458941283e-12  -1.2031827205581063e-39  -1.5381200962633875e-30  -1.0880122235155136e-19  -4.0533041941397161e-36  5.4227717327579186e-36  1.2608747475585107e-23  -9.7531809966698710e-45  -4.6210931544703364e-14  -1.0546432301820336e-29  7.8093300051176883e-08  -7.1956102026238778e-34  1.6078466598897473e-13  7.5948470534489463e-16  -1.4973302356533655e-20  5.0811035125242523e-25  3.7264716448902378e-24  4.3114145742807000e-37  6.1678452253491423e-39  7.6075679295405267e-35  -2.6545997306121748e-08  -1.4246883245304796e-48  6.2724398094853343e-56  1.1176264355585566e-58  -1.4391323372039677e-44  8.4261552548791936e-22  -2.2851122040086712e-55  -3.4301428147286567e-13  -1.5460673644067892e-18  -1.6813289476106984e-20  -7.1943544167828992e-42  3.1653954719503022e-26  -4.3066139480937349e-27  5.8673553507020104e-49  1.1518852445718243e-30  -1.5019645088454206e-50  -9.7508795481048577e-51  -1.3677806352570305e-39  -1.5462578511546418e-51  1.3407506617036739e-35  2.8704238244223885e-56  2.0977192602261164e-39  -2.1617458782769122e-32  -1.0047458197313694e-27  -2.6924226966672089e-08  -1.4582300366599433e-47  -1.0247736659669082e-45  -2.2937506743037585e-47  2.2500855212307469e-17  3.1739190886147114e-35  -1.3197828936941782e-33  -7.1158651437349346e-36  7.5707443077630298e-59  -1.8256487408941765e-17  4.1266632414957376e-43  -3.6639993838434004e-17  -2.1292083698539952e-16  -8.3250087099584007e-40  -6.6329168741154614e-31  -1.5546392650628507e-37  1.6172174994106589e-48  -1.4122162368706736e-46  -7.8316794899567473e-19  8.3594601962443558e-17  4.4743622618509711e-29  -1.1537616309463214e-46  2.6550650308567225e-42  4.4560363944262641e-35  3.0866939595715109e-35  -9.9686811530554036e-37  -4.5632271506311083e-45  -6.3793513939667734e-36  -2.3031663363785452e-52  -3.7439141325587071e-43  -2.4825569958418222e-21  -3.3316905570596592e-50  9.2013372223469140e-45  7.2775853951443685e-41  -3.1667173473007422e-41  -4.7984291901395153e-58  -1.2078707196672121e-55  6.4603389207953268e-55  2.7636232930113493e-44  8.6654414262652315e-44  3.8237866789905467e-40  5.8071391341757967e-17  2.8887101524784971e-17  1.9776216366893777e-32  1.4303267415178992e-51  -2.5536168067281676e-56  2.8029520195138550e-36  -2.3234052259432662e-61  3.7863587625682688e-60  -2.0435799308473125e-25  -4.1000298386219825e-29  -1.8729306250099676e-42  -9.3249690279238069e-41  3.1462056465072672e-33  -8.6086652172808260e-16  7.4997568239423001e-47  -2.1435369783710496e-45  -8.6799146102703682e-41  5.1355063970961461e-05  7.8844104447213532e-06  4.3961169088429980e-07  -1.3422992671577238e-36  -9.7429670288273673e-43  8.8529137991274485e-42  -1.2326981614001981e-12  1.1692346742332227e-49  2.2693536475087658e-43  5.1642132853755915e-27  2.7959640607906102e-33  2.8378220287310639e-44  -1.1418294830599904e-65  3.2455749890414434e-36  -3.0221924124635675e-54  1.9433881779913413e-60  3.9943446682940003e-11  -1.9851973400160487e-25  -1.1312991929730617e-35  -1.6087555445348982e-46  -5.7799925300076005e-50  -3.0958974451931516e-32  -6.3695864433297212e-45  7.4902637756330872e-11  -1.7093547652207944e-31  7.7010036921656966e-61  4.2456864172052662e-29  -8.7562792010278274e-14  5.0694882777334963e-23  -7.9303965113114784e-43  -2.0975645402005202e-21  -1.7382515994099452e-27  2.5835277367075509e-19  -1.0576365080129088e-47  9.9084641921739335e-38  2.0341654786276021e-06  -5.2544920146606345e-22  -2.9271458648541978e-12  -1.1883330618314045e-10  -2.1012493529074900e-12  -1.2843512627961584e-08  -2.5498469674635724e-08  6.0724672251665918e-49  -4.4264442990455654e-51  -7.7969111107894805e-31  8.4742813528031374e-28  2.4330621240857411e-28  -1.1765039248761018e-23  -8.0895628655888036e-03  5.9743581316218495e-45  4.4152082637179159e-47  6.0757166746548841e-18  -6.9833831983901398e-56  2.5087186020874656e-45  7.3797107929852984e-58  1.0146603940440970e-40  -1.5886426415282276e-56  6.7831087351416958e-20  -1.9694916052975880e-50  1.6865716235760117e-28  -2.4009207190307989e-47  1.0734653757031656e-47  -1.0257824109895460e-02  -9.3238003183269473e+00  -1.7183457356624520e-53  1.3058147961186833e-20  -5.3065021660126850e-63  -2.6731055641044676e-02  1.6974925505331369e-38  -1.7587340549181857e-45  -1.1585970623450703e-13  1.8845044002540592e-14  -5.6722577464278361e-34  -2.5633254658711253e-46  2.3158207933027624e-29  -1.1206826933808246e-18  -2.1452601603333869e-59  1.7419638968580026e-05  -1.1084642333093669e-38  -1.9130551531841533e-38  1.3133059388732224e-17  5.7443378569536016e-45  1.6272276298009900e-07  3.0054517540648814e-30  2.2827269434746123e-41  2.9992465985483073e-38  2.0475211382302731e-35  1.1226649869864376e-53  -5.5258526650400559e-29  -2.0933195481789047e-37  4.1374148393790172e-23  1.1115792255205459e-38  1.3750647847065703e-43  -6.6083663857235828e-49  -5.4877062449748534e-50  -3.5200246767660895e-39  1.9048469526874984e-19  -7.8270470139288178e-52  -2.7292005556614925e-52  -9.1462341867496246e-19  -5.2483996828232063e-64  -1.1909998364609843e-47  -1.6553605681913279e-61  1.7611258989816072e-46  -5.8282913383245842e-47  2.9376290272322695e-51  -3.1482539320953141e-28  6.3625444491536873e-49  -1.1784996217294359e-57  -8.2515586740408600e-29  -5.4179764993017518e-27  -1.3546360138370902e-51  -5.7487823157635026e-52  2.4716494898308971e-55  -2.4913134107355112e-16  1.1434915204188834e-16  4.6878865090232819e-21  3.9468036024390825e-52  -3.3433226768763351e-10  1.6999292353122803e-14  3.6748086530069926e-32  1.1151783531719831e-33  -1.4969765724548535e-48  4.8414689048106714e-05  5.5953152732950842e-41  -5.8197942374511857e-45  1.7186523818174290e-10  -8.6552625585294238e-24  -5.7070264825931055e-02  7.9415479556934330e-04  -3.1664625664699007e-58  7.6087252138339239e-66  -4.6141101452080199e-69  -1.7489744392530780e-66  -2.8963795006360202e-24  4.3418313937904867e-53  2.0482378127292760e-06  -1.5796900778229069e-59  -1.6656885276389719e-63  7.5373788387460178e-47  2.1704806808954572e-37  -6.6294430322803417e-46  -9.4493628236469266e-31  -2.6588020025770126e-47  2.4605747376361366e-28  1.8094207495451686e-49  -1.0014494292904396e-11  4.0045825057913385e-10  -2.4541194910743209e-09  3.2850717153097962e-53  3.1463023316918025e-08  1.1250479691612613e-17  -3.5906942290056983e-08  5.2651132214573519e-39  4.3846224868680750e-22  1.2428040920007290e-20  1.4516625948947405e-40  -2.0734442601850890e-25  -3.0523762341182368e-26  7.9666258854822159e-29  8.2389789254066077e-22  1.8844489636226250e-08  -7.5155411997568099e-06  -4.8295481107957080e-46  -2.8487035737490396e-42  7.4582199001877594e-38  -7.8025783560828779e-44  -2.7689270903988057e-13  -1.4099686371956350e-52  -9.1680194446012315e-27  2.0234601467810183e-40  -3.2900546299273781e-24  -9.6979921621526271e-15  -2.8942341568814743e-33  -7.8707328286041186e-38  -1.4837457545273975e-27  -7.1066886984815654e-19  2.6840573670211891e-20  -8.2901782134353210e-36  -9.0018441469814473e-48  -2.3515629432656445e-15  5.8195470538861185e-44  -3.2232087775705256e-44  -1.1560781219141986e-27  -1.6116840679261278e-33  1.4369352383023536e-14  -6.2823249432234788e-38  3.2202688920666910e-13  -1.5072618350628933e-51  1.9607306797583841e-30  2.6079165985823314e-31  9.3245966108554346e-48  1.9931484658372432e-42  5.7119827467196713e-42  1.4361525823857052e-45  -1.5668631784655875e-44  1.0854468278277738e-40  5.7067855870801335e-23  -4.2340669494696083e-42  5.0491186895798960e-33  2.6094400216594281e-24  -1.6028389767064440e-34  -9.1030829223081941e-36  2.0315291489290449e-50  5.7738961225727286e-30  6.8339125352290454e-36  1.6110502661606586e-36  -1.5579299380624803e-39  2.6038993248430914e-40  -9.8816992736784285e-28  2.2389626917458014e-29  -2.3085909624240558e-31  -1.0455519183657096e-23  -5.4754821280656238e-40  -1.6052562653449877e-46  -6.1597050394722107e-48  -6.1112416764279352e-43  4.8938299767296751e-41  -4.1497810579076578e-43  -1.2868166901976055e-50  2.7599944784185645e-36  -3.3201937208846574e-27  -8.1940093280532379e-51  7.7932762931543568e-50  -1.8760644047364211e-46  -2.6650032125157056e-32  1.2422000578103579e-24  1.8158367842853430e-19  -1.2641077787865649e-36  -5.4059535084619772e-35  -1.3453251905892415e-16  -6.2056300668177839e-24  -7.6838001692081927e-54  3.1410846016310015e-12  5.6945587266226127e-34  -1.2876474105168480e-54  -7.3899030292240210e-54  3.0394826228802961e-60  2.8904058361427344e-42  5.5099482408865736e-47  1.4420872409212046e-24  -6.8324308651170123e-36  3.4335179033188413e-31  2.1302390403056111e-21  -3.8210524681194707e-45  -8.4472043389084330e-48  1.1904186767658179e-33  -3.8453530440597156e-42  -7.5401901457791183e-22  -1.1404781513763858e-32  -1.963401