<?xml version="1.0"?>
<VTKFile type="UnstructuredGrid"  version="0.1"  >
<UnstructuredGrid>
<Piece  NumberOfPoints="6454" NumberOfCells="12638">
<Points>
<DataArray  type="Float64"  NumberOfComponents="3"  format="ascii">0 1.5 0  0 0 0  1.5 0 0  1.5 1.5 0  0.75 0 0  1.5 0.75 0  0.75 1.5 0  0 0.75 0  0.75 0.75 0  0 0.375 0  0.375 0 0  0.375 1.5 0  0 1.125 0  1.5 0.375 0  1.125 0 0  1.5 1.125 0  1.125 1.5 0  1.0625 0.4375 0  0.4375 1.0625 0  0.5625 0.375 0  1.125 0.9375 0  0.3854166666666667 0.6979166666666666 0  0.8049568965517241 1.130387931034483 0  0.28125 0.28125 0  1.21875 1.21875 0  0.2175662878787879 0.9079071969696969 0  0.5625 1.303571428571429 0  0.8290441176470589 0.2738970588235294 0  1.303571428571429 0.5625 0  1.2578125 0.2421875 0  0.2421875 1.2578125 0  1.010416666666667 0.6979166666666666 0  0.2051282051282051 0.5216346153846153 0  0.9856455736880344 1.297298524562678 0  0.7653719096334186 0.5079390451832908 0  0.5481770833333334 0.8606770833333333 0  1.039462506743128 0.2044177382376396 0  0.5828641541157527 0.6178675878563986 0  0.9136904761904763 0.8913690476190476 0  1.3125 1.03125 0  0.6409183354192741 0.1798341677096371 0  1.281668526785714 0.7820870535714286 0  0.1875 0 0  0 0.1875 0  1.5 1.3125 0  1.3125 1.5 0  0.1920012972225798 0.7153938510340165 0  0.4043073677566794 0.4982626425332328 0  1.054735085357395 1.117171638214202 0  0.9375 0 0  0.5625 0 0  0.1875 1.5 0  1.3125 0 0  1.5 0.5625 0  0 0.5625 0  0 0.9375 0  0.5625 1.5 0  1.5 0.1875 0  0 1.3125 0  0.9375 1.5 0  1.5 0.9375 0  0.4468932545895913 0.1802144181965304 0  0.7987562970593343 1.318357727289711 0  0.6320399113235965 1.037924776639822 0  0.2603996068459564 1.080712106845956 0  0.3802379261363636 0.8658558238636362 0  0.3950892857142857 1.331473214285714 0  1.229910714285714 0.4095982142857143 0  1.13745405880473 0.5879074784276126 0  0.7482946595664349 0.917427298948138 0  0.8625423372573767 0.63562835295355 0  0.9012540315035069 0.4192242537897745 0  0.6862861647268528 1.220560482834343 0  0.1224516396650128 1.023194379059598 0  0.125 0.28125 0  0.3042571223994863 0.1326690407998288 0  0.4149781713917952 0.3488154858246145 0  1.359375 1.171875 0  1.3359375 1.3359375 0  1.131854448751258 1.346034816250419 0  0.84375 0.1212988551125148 0  0.1361607142857143 0.1361607142857143 0  0.691638521804216 0.3135510227244841 0  1.131379139752747 0.7872570780892659 0  0.9688853304056201 0.5429870982608649 0  1.134057265332395 0.3075921335077801 0  0.1060987903225806 1.21875 0  0.1387129645862553 1.361715427487219 0  1.393901209677419 0.28125 0  1.361287035413745 0.1382845725127811 0  1.21875 0.1060987903225807 0  0.3601433665263453 1.180455866526345 0  0.5483798738512705 1.157949853770241 0  1.36815753200686 0.4172967302747542 0  1.187531723571597 1.085953361785798 0  1.401785714285714 0.65625 0  0.65625 1.401785714285714 0  0.09804407994526333 0.84375 0  1.402254384056937 0.84375 0  0.28125 1.403363735808893 0  0.925464184745229 1.040966878346683 0  0.9340282126721275 1.174186719212852 0  0.8797957988728348 0.7651628218565172 0  0.9934051945542568 0.3266495984636094 0  0.203125 0.3887553418803418 0  0.3141644363520071 0.590454276924375 0  0 0.46875 0  1.254999444628736 0.9118761107425289 0  1.03125 1.5 0  0.3213923331757561 0.9738827583030052 0  0 0.65625 0  0.1159730568910257 0.609375 0  0.5141588149450601 0.7319349350549398 0  0.5326188770927806 0.499793044891493 0  0.6693710930845284 0.4331752184013763 0  0.7121702197229691 0.6260790780451906 0  1.234475471272342 0.6664938523856012 0  1.098390770327214 1.229886041743451 0  1.013464781580893 0.8203484622190179 0  0.2952629260823795 0.7791860223918741 0  0.4928385416666666 1.401785714285714 0  1.21875 1.5 0  0.6298376402880013 0.7702339567996885 0  0.7848608254810038 0.3893687681820236 0  1.5 1.40625 0  0.4622923140598757 1.236370233688302 0  0.4667991207677928 0.9473088592382519 0  0.2981266305022628 0.4537778927841646 0  0.84375 1.5 0  0.9008085981204581 1.384216576384643 0  0.9616882272291621 0.1155730914816442 0  0.5035849743784865 0.2782669836795798 0  1.009598009491631 0.9590831193486247 0  1.105310675430652 0.1118663280349183 0  0.9288474621627256 0.2227857609567891 0  0.7464170347051563 1.031945227193052 0  0.1125198733612451 0.4565759846003609 0  0.841690222029119 0.9722978654718903 0  0.4672907609250232 0.5973206048957169 0  0.5437787095683263 0.1151781905475824 0  0.7536044163845748 0.1896192335637668 0  0.65625 0 0  0.7049920363331066 0.09569941760663599 0  1.40625 1.078125 0  1.39081588470667 0.9535067694133395 0  1.40625 1.5 0  0.6375104178177308 0.9268732242701165 0  1.003645772935292 1.399729634730415 0  0.1610182417168329 1.124880958145783 0  1.304862449892061 0.3348605478786471 0  0.8685031591756179 0.5174815394805063 0  0.203125 0.2142857142857143 0  0.46875 0 0  1.236252628961601 1.388617949258287 0  0.6528472422531054 0.5380411271234069 0  0.8059365139027533 0.8342920789922936 0  1.210984939277725 0.5129097255512943 0  1.166392387042105 0.1947779113806861 0  1.03125 0 0  1.112027098777656 0.6868999874317245 0  1.4091796875 1.2626953125 0  0.7056210334910562 1.122831931927321 0  0.8445532731910484 1.225781273471752 0  1.401785714285714 0.5192199888552865 0  0.5315992325579575 1.02511262900491 0  1.40625 0 0  1.5 0.09375 0  0.09375 1.5 0  0 1.40625 0  0.09828267889765753 0.7453580504435201 0  0.2137299928547555 0.6195416563936835 0  0.191293077366709 0.8134420362003882 0  0.395652989337951 0.09620832696794322 0  0.3786395303236629 0.2546156254865724 0  1.105082759698279 1.033286095599126 0  0.09375 0 0  0 0.09375 0  1.269539180892899 1.136742542678697 0  0.4693126788152344 0.427799606155492 0  0.6022922682526717 0.2709632077670539 0  0.286537769267488 0.682999829576168 0  0.431696207163009 0.7833932160815852 0  0.6864071374811688 0.8459705255349474 0  0.7528727250742914 1.403406392299215 0  1.40615841291152 0.7499896558614008 0  0.46875 1.5 0  0.28125 1.5 0  1.5 0.84375 0  0.65625 1.5 0  1.5 0.46875 0  1.5 0.65625 0  1.21875 0 0  1.5 0.28125 0  0.84375 0 0  0.28125 0 0  0 0.28125 0  0 0.84375 0  0 1.03125 0  0 1.21875 0  1.5 1.03125 0  1.5 1.21875 0  1.203254432787244 0.991934092179911 0  0.7018429057870754 1.316240552056942 0  0.09232383443139219 0.9359101690420062 0  1.40390625 1.40390625 0  0.2348931380369949 0.995323396873026 0  0.3477301897825538 1.059746137541629 0  0.2397198755521273 1.168072125048833 0  0.21928098141281 0.08974206793316726 0  0.09164332482786468 0.3669827664371529 0  0.4604861261832766 1.147925083553434 0  1.208242546284113 0.8346339808272811 0  1.042270885119771 0.6063462845058686 0  1.320424270852333 0.6988339884515781 0  1.018211345242011 1.19612913087091 0  0.3232572989405801 0.3642302377411452 0  1.219683471513571 0.319825657354259 0  0.9022918689243919 0.3281052118114913 0  1.209245485719643 1.305564994554257 0  1.051234566759267 0.5217852582666107 0  0.3673510104646698 1.413627432420576 0  1.295769937043816 0.4720643981603306 0  0.3072023010063974 1.318381411439101 0  1.141690261405714 0.3964585327199988 0  1.132920129606929 1.151700997493917 0  0.4797323103182937 1.318677829548113 0  0.8975459458359925 1.296170152543854 0  0.464209749529605 0.8633392490855897 0  0.2934839260221656 0.8659218053661386 0  0.5291505402246311 0.1980703646347806 0  1.129554686622487 0.4893579115624633 0  0.6803878781969045 0.7035160631177291 0  1.32373046875 1.25048828125 0  1.32216796875 1.41767578125 0  0.5499851861317793 0.9439128053349233 0  1.022629866909724 1.040850270203209 0  0.5745442708333333 1.417645342938312 0  0.6210905905518814 0.07817000059074161 0  0.8251326424747147 1.051763251304391 0  0.9840195129520318 0.4094589843317338 0  1.335304710332526 0.8922471458140904 0  1.056578658899854 0.8909713350312058 0  0.6311277392046407 1.158870891931624 0  0.08048866130562571 1.097266504752301 0  0.7899471681381695 0.5900550615276262 0  0.787583911300231 0.6744258112570235 0  0.9253568605083915 0.6931779950154204 0  0.6069241236579608 1.236016193461046 0  0.9754544598564333 1.105608345312828 0  0.5891224709431884 0.6993621756793521 0  1.20518939408778 0.7458807514137317 0  0.7661039078070937 1.202429845202379 0  1.160750676252366 1.424456431149488 0  1.07906062607374 1.432028171475168 0  0.3800251736020173 0.4214243130004857 0  0.9386398271504294 0.6156244973145778 0  0.0625 0.234375 0  0.203125 0.2933407738095238 0  1.215434655272782 0.5908176357312523 0  0.3862873976850203 1.253958025454808 0  0.9642783311550196 0.7603191879845486 0  0.07907187269262334 0.5337704210040105 0  1.05323270401054 1.338218592033867 0  0.7809244217906405 0.07297738156489482 0  0.8538188665025647 0.1992768958275427 0  0.9002757663302332 0.06810835486946346 0  0.3896574912364178 0.6177519597715768 0  0.8312147565658268 0.4504658003252042 0  0.6060876899209792 0.4769383705177015 0  0.6973120163099531 0.973865749266754 0  0.2220506518942812 1.34123409472246 0  0.2016535060668421 1.419937676612376 0  1.067204461774397 0.7475876083618238 0  1.126113744622621 0.8622904019182541 0  0.3283697934586307 0.06033102762239553 0  0.3141768357227177 0.2102768223058998 0  0.8836591735735614 1.110539499889141 0  0.9335121559963067 0.9650712587476813 0  0.489881977219376 0.3554687673286838 0  0.1635028372004782 0.9601830799237989 0  0.190064339368102 1.055218085849877 0  0.4693032589410306 0.1089149617768512 0  0.826087350728517 1.388004148744978 0  1.071391321568866 0.357735705332231 0  1.056880377786583 0.2807740346831144 0  1.3359375 1.1015625 0  1.4296875 1.1484375 0  0.3906148988360577 0.9415494491776595 0  0.06145603826933142 1.359375 0  0.06985309644022948 1.2846420920388 0  1.438543961730669 0.140625 0  1.43014690355977 0.2153579079612006 0  0.161811455697184 1.281243264907209 0  1.2989767800824 0.08251937661177217 0  1.282654529021692 0.1634516867188552 0  1.343324227095839 0.2175851507697937 0  0.5747241214300347 1.087143402580354 0  0.1502172474800126 0.06370164366342397 0  0.07677312842259779 0.08704698619211086 0  0.06709364565267519 0.1592134266688963 0  0.1305803571428571 0
[...]
<PointData  Scalars="f_16-3"> 
<DataArray  type="Float64"  Name="f_16-3"  format="ascii">4.2092018141174829e-06  -1.4863820260555623e-14  -4.7874933806724618e-19  3.7452329966092101e-05  -1.5003402118508894e-15  1.7449423230204653e-12  4.1014264237365404e-05  8.5591925667070841e-06  1.2053273517854813e-04  5.3876500965293646e-06  -8.2424193823436675e-15  3.5752910542420107e-06  8.1546906761804550e-06  -5.6981397245408474e-19  -7.8328658498723152e-17  6.6172985061672598e-07  4.5075137799004345e-04  2.6344164211400059e-14  1.1931931997109411e-04  5.6773707486157472e-09  1.2713705656465715e-05  1.7170549069415182e-03  1.0915300037153191e-03  -5.4784304754938043e-09  1.7348004678094985e-04  1.3825489121548159e-05  3.3400228993799873e-05  -4.0624446755161033e-15  2.3053735739247424e-13  -1.5825768715911355e-17  7.1242607513134972e-06  2.6816329358816631e-07  2.5052411848795943e-03  8.5912266725488235e-04  2.7847964991188112e-08  1.3444214748698296e-03  -1.8502272648976545e-16  1.2960437995628525e-04  1.1787472682073897e-04  4.0039358055302546e-06  -4.1872370593076329e-15  4.8901465996634656e-09  -1.1696250866422599e-14  3.7199554206244095e-11  1.0338614486920735e-05  2.0133664918946530e-04  1.5606267010186023e-04  1.8244493161381431e-04  3.6276649588692006e-04  -4.0225472822371393e-16  -5.4304571163632992e-15  3.9777395549028738e-06  -9.0492652069862734e-18  5.7540395269710628e-16  8.6167336972659232e-06  8.5225888923651994e-06  5.2924547180918607e-06  -5.9096608907277447e-19  6.7570890728573797e-06  2.5943464705438854e-04  9.0550592318854764e-09  7.4211590441333403e-15  4.1250773920905632e-04  8.9862633031769206e-04  8.5244796049097655e-06  4.9952393324223803e-04  6.4620217685743954e-06  2.0784906494437479e-16  3.4180767414095496e-11  8.2698025646800314e-04  8.8483281785604095e-07  4.6710149176256577e-12  3.7677909647051966e-04  8.4443681716982430e-06  2.7867776320486063e-08  -9.9696003240232727e-15  1.0666444680711586e-07  1.5416094210225470e-05  1.0430299454884754e-04  5.5341545002594893e-04  -9.8802226646244815e-16  -2.2682839891399315e-13  2.0026287836530585e-12  4.1829671694107142e-07  3.3896287171339442e-10  -8.7442054373700891e-17  7.5580050895158740e-06  5.9388347981321355e-06  -2.3711564823268886e-18  -4.6117265761228842e-18  -2.6550988901224015e-17  9.8274919816491957e-06  1.4581893812412494e-04  -2.3724077651949412e-18  5.1583046921196330e-05  1.2054760146035885e-12  3.7374625630355483e-05  8.5852616158612461e-06  3.6762067835295633e-09  5.2412064865697295e-06  5.5882782233736012e-04  9.0781065970662093e-04  2.0531273726350248e-05  -5.9737117010388516e-16  4.8576257513868553e-04  1.9293077578544148e-03  1.1403551121785191e-05  9.6147626123392233e-07  4.2305553520371325e-04  4.8204944931264977e-05  8.6135728520514126e-06  9.8827587946614050e-05  1.1717714289200016e-03  1.3220143561959591e-05  1.3222353882335046e-08  1.1494917657651885e-05  6.2021752867712992e-11  4.9077470477962932e-04  7.5150435588185242e-06  4.6453416292646936e-04  6.3214860074708014e-06  3.4344824044396031e-04  6.2700343560672452e-04  3.1085530107035269e-11  2.6865919165780047e-05  1.8437264799296876e-05  5.6928011867907191e-04  4.8164597730539254e-04  1.1504838658824040e-04  5.1784155387716668e-04  -3.7734606850733818e-16  -1.4939654004193541e-10  8.5078758283874074e-05  -9.1602518977576130e-17  -6.3572863457260959e-16  1.1575097142707948e-03  2.3762085126447629e-03  6.0573581120713048e-04  4.5199545953297543e-04  -5.7935869992035819e-15  -2.5246596939038477e-15  -3.1091029762816393e-15  -2.9056386241714265e-15  1.4036054217474865e-06  1.7684536095061142e-07  9.0971860184402298e-05  1.2543058602370013e-03  6.4253749782570470e-04  8.1608539350314084e-06  -9.4956298278782524e-18  2.0302104229657130e-09  -5.2856035550890603e-12  -6.8438660111735502e-15  3.1385706782122429e-04  2.3173149760180875e-06  1.9524407575038238e-04  1.3502094896314703e-13  -5.1157731808071356e-17  -1.8206316473062581e-16  1.0332917922592861e-08  2.1033165782295437e-05  8.8050505705590087e-04  9.2712947877835697e-04  6.1611265858797998e-16  4.7005404107434539e-04  -2.0150547349084518e-18  -5.1291286832430884e-19  4.1377118569442546e-06  5.6511225154496157e-06  9.4489660888652004e-06  9.6564442258762590e-04  2.3639879700856385e-05  -7.9510017924379522e-15  1.7682193534462749e-10  8.0137861275581719e-05  -1.3278077985814774e-14  -4.6454596602991255e-13  3.4805153728295559e-05  1.6056152447088429e-06  -6.6172350701979732e-12  1.0634445891271049e-03  1.3696114217793007e-03  7.5532133757119169e-04  1.1819895952357742e-04  4.1954938927289747e-12  3.7017968163807084e-06  3.8268776136056368e-06  3.0560563730687028e-10  1.1673458762718410e-05  1.6869880158601716e-18  7.8938771917477068e-14  -2.5946467349186810e-17  -6.0904789319812911e-19  -8.5850273967264831e-16  -9.2807595288732335e-15  -2.2805801529712745e-08  8.5559885071586271e-06  8.4322593159996798e-06  7.5160539104243904e-06  1.1282381278967970e-07  3.5068272346342866e-06  9.0467732777136014e-06  1.8451747555391874e-04  8.5357052352128898e-06  6.9595945599846241e-05  9.4093586658666946e-06  2.7999514026668999e-05  7.9504863811214239e-06  -1.1265096202790256e-14  6.4277205578722868e-04  5.2524382768215087e-05  3.0333104519552377e-07  4.4929166971634472e-10  3.0412296707918690e-11  7.2837249562271087e-04  4.7829482851417494e-06  -2.9777634253903985e-17  1.3039172258279281e-15  3.0579678464452573e-04  1.9082431794705034e-11  4.9360278620004154e-06  1.2765469442817054e-15  6.3768699740478519e-06  7.5288079775406919e-16  2.5716304899890035e-04  1.0370673954175407e-05  8.0703967691293647e-04  1.0501919191886542e-03  1.4348159010651564e-04  -7.8394485290112223e-15  4.1853162411363641e-13  1.6613207855225136e-04  6.7773423190608427e-05  1.6962119365327414e-04  1.0025039886125198e-03  2.3491886375073080e-04  1.0216733346521987e-05  -4.4968853644522446e-15  1.0272463787175722e-03  1.0570483848038635e-13  1.0676999375589295e-07  1.5084909272797847e-05  3.7432330134014216e-04  8.2653787550054623e-06  7.6566873746260770e-07  1.2049786608906217e-05  1.6788493031140095e-06  1.3633481302184445e-04  5.8129071827157659e-04  4.1260436292377329e-04  1.9505814173674979e-09  7.9683198499218657e-04  4.8570823672290718e-04  5.9037593132422095e-04  1.5343209182248426e-05  3.3753368381335890e-08  7.8271824157425042e-09  6.8454618213873001e-09  8.5846770231343511e-12  8.0058908821774996e-06  3.6099690758327548e-06  1.0580604991589608e-04  7.3902007529916096e-04  -1.4482416479749189e-15  -1.2226647833594166e-15  -5.6699208837427974e-16  1.4122272629107906e-03  2.0440371265129493e-10  7.1863360543041526e-07  1.1947681435574345e-03  6.1483987958359040e-06  4.9912841752083047e-06  5.0141287009056770e-07  2.9761989396711449e-06  -9.1245858769008978e-15  1.2016589631895407e-11  9.4910558380956623e-04  2.6055994457501195e-04  1.7150366747314867e-08  8.6430606939599627e-06  8.4156821888528571e-06  -6.9212033513089103e-15  2.8267654800179443e-04  -1.2818135346586556e-16  -1.9423311733871079e-16  9.3038291230481509e-06  3.7476632909220370e-06  2.7275854387644768e-04  6.1147305279648294e-06  7.0096605639501806e-06  -1.3870197072188775e-18  -1.7170870138079026e-18  6.9542056436516221e-06  -1.0531182936576095e-17  -1.1518176200870209e-17  -5.1764418644995786e-18  4.5609159995821212e-04  -1.2660340520202715e-14  -1.9217430547047703e-14  -2.9337150356360770e-12  -8.9103986869855721e-12  -2.3960852079555135e-18  4.9549466574266038e-06  4.9437856749304681e-05  7.4983056506978559e-06  -1.9544537867131252e-16  -2.1762810443959115e-14  -4.8020927285660674e-14  2.3138543733377974e-10  7.7285493916326065e-06  3.9442001328403133e-05  3.1396825919902398e-04  1.1450724536008787e-03  2.0272205125687357e-04  -1.8439247515830926e-18  -5.4878179062813725e-17  7.9676203512860062e-06  7.3506374965442063e-18  3.1247662978202252e-05  2.7079024006401897e-05  8.5417397018984697e-06  9.1727527769484988e-11  1.0530404821004763e-06  1.4421573622023498e-03  -3.6512350748143822e-16  2.7005068150317353e-05  -1.0047633536006230e-13  6.3508416819893206e-05  -1.0089044237422307e-16  1.1282254227275451e-03  1.8616799923491648e-03  9.5687400567180201e-18  -6.1355781145405364e-15  1.4364512844586763e-12  3.4388771173330980e-05  2.0543016730119861e-14  1.6831066956972445e-04  -6.5192745894159872e-16  1.0693946847758476e-03  1.6220585268319977e-05  1.0731004225819334e-04  -3.8655399578044506e-17  3.6777345257482113e-05  8.5685064400309216e-06  9.1213079795813141e-06  6.2127304233971465e-10  6.0916777820788408e-09  4.5291557269051255e-04  -2.7490604445743511e-16  4.3207834547813895e-04  -1.1918734575365969e-16  1.0439246154582342e-07  9.0775970403302595e-04  4.2238169334011968e-06  2.6729431829493311e-03  7.8998903990066429e-05  7.1176161879571335e-06  8.4859056089938682e-06  8.6659773682504420e-06  9.7160307858582140e-11  1.1316270924287387e-12  1.0688734108375728e-04  5.0521583469543156e-06  5.2431356405699129e-05  3.7479189209873289e-06  9.7286762060502928e-08  4.8328360950395586e-14  2.7400916051949442e-04  7.3921491004729455e-04  4.3924662900439306e-12  4.2116818274774503e-04  5.0521469278164288e-05  9.8519481852561727e-06  8.5478620183452337e-06  1.6227104118546516e-04  -2.5016114642576589e-14  1.0927065829407806e-03  1.2739307470490758e-04  1.3483088095459232e-04  9.4431746845077564e-07  2.3914099966369936e-04  9.4986941654625397e-04  1.8424600003356690e-05  4.5971571793156066e-07  3.0160632892713093e-05  9.0305456651300382e-15  5.5799698257613002e-14  -3.6200368295252813e-10  1.0972992354583348e-12  1.7528178810503378e-10  2.0173731433789633e-09  8.6222087901403389e-04  1.1464558695149514e-04  4.4674494496601564e-05  9.1521677489363449e-07  3.2571359051842168e-08  1.4517314363648255e-05  6.0112738778638129e-11  5.4574892977391074e-12  9.2184145499575078e-04  2.1036788273638960e-10  1.5478050740408834e-04  5.0958575705355733e-04  5.5832550879750965e-06  6.6361143975556859e-04  -8.2007345885398249e-19  -7.1886043400676471e-18  1.6926431282139511e-04  2.5090512488063141e-05  1.3341621992824138e-05  -1.6039083782107762e-08  2.4341112961515821e-06  1.1941746916764530e-04  1.8275286735699560e-03  3.7173193295103209e-06  3.6032068417510488e-04  2.5299483075034513e-04  1.0583295666109641e-03  9.4287649683876575e-08  8.1711312312857489e-09  1.4240726499450471e-04  7.4101888130043538e-04  5.1244767168583756e-04  4.0530501959817341e-04  7.6222865519283173e-04  8.1175258450330386e-05  4.3175217322307476e-04  2.9106215366645302e-04  -7.4784297399841774e-15  7.7736747634666877e-09  1.2032070510802830e-05  4.8081227913983790e-06  -2.5927533457319428e-17  9.2658439299636239e-05  -2.2076088134403090e-15  -8.9089362050117902e-16  9.6412083032183945e-04  1.0862600824756150e-03  3.1784393098040334e-04  -7.1201000428474564e-15  -4.0419475979182588e-18  6.9928003723804477e-08  -2.9332712688871139e-16  8.4074312290367687e-06  2.2875061861394368e-05  -1.0603056615040645e-16  1.0638430306498985e-03  1.2608922777872960e-04  2.5730195295816180e-04  2.7491477279613960e-04  -5.2100858240821660e-15  -4.4467913729892154e-18  1.6094757628832726e-05  1.1955246445367141e-05  5.4189409328086482e-04  9.3394204760036110e-06  -1.4003875756385654e-14  4.9579930750038364e-15  6.6717518872452201e-06  5.3992841959365665e-05  1.0408114022019475e-03  1.5598384698010010e-04  1.0122510139637745e-14  2.0210012544062236e-05  -1.5099822190933242e-17  -1.8764145350328655e-17  9.6768423311876782e-05  2.1302360866957172e-03  9.2610510363536655e-04  1.1326202729638080e-03  -7.8267103165539628e-16  8.5573406489855460e-06  2.2473831443678180e-03  -4.7993382330753319e-17  7.5203836802177951e-13  1.0447211974162942e-09  -3.1254816394071503e-15  -1.9314879369091642e-15  -1.7042726684041812e-15  -1.0312874269835997e-14  3.8266843343788603e-06  1.9156031843285088e-04  4.3688269872328912e-04  5.6088771965087810e-06  1.1584362703378601e-03  3.6291053184495098e-04  -1.1727606373778842e-15  1.5973411327037464e-03  1.1116867863989112e-03  1.1607256623619490e-03  1.3013371800782406e-03  -8.6857408262915510e-12  3.7666935597554259e-05  3.4003853304402882e-06  4.0818620804724176e-17  2.4487550898217450e-08  1.9230511280969297e-09  6.1002704203764503e-04  8.1126909831091820e-06  1.2267535229403158e-04  -3.2356299585264167e-17  2.9178448067091599e-08  -1.0952586124250633e-14  -6.1442533424327910e-19  -1.2282710291682949e-18  1.3288438465123523e-05  -5.3025667695423142e-15  8.2441422385264137e-06  8.3401187213237466e-06  7.7206885507297141e-11  3.7551182608530176e-04  -6.8714764189118003e-15  2.9538437055496577e-04  6.9565024387998231e-04  1.3400955870610432e-11  2.8635529141625515e-08  1.6191377511535533e-03  4.8248740286294764e-10  8.3649923818313583e-06  4.4908885975566172e-06  4.4419754261994182e-06  -3.1558595303676743e-15  5.4522718903073227e-04  -5.4897013621936121e-15  8.9853373376446411e-17  3.9408848976338383e-09  1.9810394098547371e-10  2.7370672096881439e-05  7.5700967798885596e-06  1.4208202642000626e-05  -1.8575927955252785e-17  -1.8791800094352934e-15  -4.0365591848197993e-15  1.9218646310275428e-10  6.1463301526626748e-04  1.8487753936021515e-07  2.4830630016946356e-12  -3.1772627291543463e-19  4.4484184991294531e-13  4.1777616468189767e-12  7.9505166766395159e-15  2.5566124191395995e-13  1.2088253815409309e-06  5.8081344045166344e-06  4.2014584518407246e-07  -4.5115557552246082e-19  -4.4635345140890046e-15  8.9461623130486558e-05  -1.5127784465016028e-17  2.7249948687052767e-04  7.1305679722612160e-04  1.4674372465004519e-09  7.6261306651279634e-04  5.3853568824580782e-04  1.3812792334120256e-06  1.4389069190997992e-05  5.9006802069333039e-05  2.1096269375742957e-10  -3.0897642388503336e-18  6.6284189416560108e-06  2.3568385790038809e-05  6.7588326137746303e-04  1.4979256435587623e-12  3.7553012762230872e-05  -5.0911932532968802e-18  8.8527186837200698e-04  1.8599024581325580e-09  6.4823590648267814e-04  -1.0273731475446172e-18  7.8953630392214653e-06  3.7500233179967533e-05  8.6308611577222686e-06  6.9505362720089930e-06  -1.2425055380420072e-18  5.5713031910008824e-06  2.8897409162322068e-15  4.2986553961438852e-04  3.5947325607110467e-05  4.6432889531983490e-06  8.8605628125129271e-05  2.1461193830120477e-04  4.9217884251625246e-09  6.5092534393636117e-04  8.5245204756122991e-06  2.1908926279109206e-03  4.4779682046502100e-11  3.4165581858767666e-16  5.9911135346541074e-04  9.5720394557365898e-04  5.3117714150124906e-04  -3.2596269722062801e-15  1.7888558856706823e-06  5.7440250085538885e-04  5.0498260645299867e-04  4.2797534036964667e-04  8.9952806105885014e-05  -2.9491118256139453e-12  1.5022412952643145e-08  9.0780686406561120e-12  8.5493075853132721e-06  1.9608967427900616e-05  1.0370568591710452e-05  -8.2258425553242564e-15  -9.2389107208962161e-15  -5.0990499005618637e-15  1.8557465588365935e-13  9.1609020798808747e-15  1.9817401146537398e-05  4.4330477926549143e-06  2.1068747530914316e-04  8.1366536697041330e-12  -4.3043792470458682e-15  1.8659911101712571e-05  2.8382239027385054e-05  1.1563548804253375e-04  7.8407838233307984e-05  -4.4689588621957095e-18  2.3441699442135251e-05  7.9275821246181633e-04  1.5254187879098725e-03  2.5682499832937387e-04  9.9173174713953474e-04  3.0458882092019340e-05  8.0751798702932839e-05  -1.1255388878067828e-15  7.2102092410002239e-05  7.2399691625483283e-06  -6.0330939168264067e-19  2.8986187284206033e-04  2.7561688640944374e-05  9.9278380835702287e-07  4.3981393682941059e-06  3.2132466905539613e-07  2.5090822457168535e-04  1.3810460734612938e-10  2.6717401487824184e-06  4.1860221603582331e-04  -1.2744508610858130e-14  -1.1577467030212844e-14  -7.1954042000520000e-18  -2.6924261507922099e-17  -4.9779959128565229e-15  2.3689489194007768e-11  3.7168347687075115e-05  7.4299720687549657e-04  1.1004185792598533e-03  -6.1057669428584536e-14  1.6152955578561770e-08  2.8626389657989370e-04  -1.8319361065716769e-16  1.1458124500553103e-04  1.7311077782122941e-06  3.2531881071821869e-10  5.3908364539670969e-12  7.0993780737086961e-06  6.0256076794989280e-05  8.6434620368104295e-06  2.0575727120132378e-04  2.0806371046295549e-08  -2.0172776527987463e-15  1.4305140118436090e-04  2.6806062018701923e-04  4.8331508501733461e-06  4.1812448515769879e-06  7.5482399078484811e-05  8.4869927406370439e-06  3.5719586123306174e-06  3.6223975081742514e-08  -1.2637237830909276e-16  -2.8357855473068854e-16  5.1343227565516074e-13  7.9290812513804949e-12  1.5208322179830319e-09  8.5017728181633511e-06  8.5597282615444570e-06  8.5593045842513435e-06  7.5567777378375786e-06  -6.2360571532372851e-15  7.9264093487798536e-06  -4.8173761059425962e-17  4.0971491394365961e-06  -1.2423840875971658e-14  -6.0031681359876313e-19  6.3431435528164253e-06  -8.7540493988111902e-15  -5.7541765763484642e-16  1.3247693057197227e-12  2.5750868351099560e-10  4.4188951496556574e-04  2.4353438984619938e-05  1.5609228016456379e-05  3.5896619741686595e-05  5.2615884344401992e-05  8.5447365613956225e-06  1.6686858169560003e-04  7.5224447365453311e-07  3.9693755908160691e-06  3.2545359943393257e-07  6.1377894350558532e-06  1.1896715400512846e-05  1.5822898991409293e-14  7.7870809643649901e-14  8.0910322555401305e-14  7.0471445754463104e-04  5.7336276183537297e-05  6.9373203135802406e-07  -2.5412869168505354e-07  2.9387502284478267e-06  -1.0593087684907414e-14  5.7519917231260901e-06  7.5651779763924589e-06  2.5161737122645621e-13  8.5543544444725276e-06  8.5273512673243791e-06  8.5070693902675696e-06  8.7552676682674946e-06  -1.3753561279138366e-14  1.9199881313694406e-03  -1.7989698356119095e-06  3.4852737753832939e-12  8.1867041773300766e-04  1.7999463015907662e-10  1.7941673405524585e-04  6.1719850773398627e-05  1.4509027053121262e-09  3.8578248733528217e-09  8.6063146836899135e-06  5.2486207192581572e-12  2.4754030407943902e-04  1.7845079564014535e-03  -5.2207630681402762e-12  3.5468515470577693e-04  -5.0615917407945154e-15  8.1482635750350786e-04  1.0062007705613936e-03  6.6299550859141724e-04  -1.5574611781750678e-18  -5.9923601525786143e-17  2.1272954642454753e-13  -3.4343623640162013e-15  1.3370613757689820e-03  2.2774445737436106e-14  4.6240995483631220e-17  5.9951535229385921e-09  6.8236670826439972e-04  2.1907627336629984e-13  1.0281699440088737e-03  7.9398679627633624e-07  1.0542839745468820e-03  8.8999589444951758e-04  6.5186025230883338e-07  9.5957726368197721e-08  5.1715406522677245e-07  3.0922206983174128e-08  8.5583682046133971e-06  6.0665479608997146e-05  1.0123019737724809e-05  5.0898360645827648e-05  8.0317019628436972e-06  8.2409348268975941e-06  3.0850904717977046e-05  6.6104860536595377e-06  1.1092208762176795e-03  7.8372043249088817e-04  5.5244393546806103e-15  -1.5362927662679771e-16  1.2380087444743277e-03  2.7096091552484939e-04  7.3410669367290127e-06  8.8410501395237251e-06  1.6084770699991609e-05  8.9123189169855802e-06  -9.2249949005533955e-18  5.7942394917428298e-06  6.2111690747449843e-06  6.9780678920851227e-06  6.4197517332020674e-06  6.7193979961886199e-04  4.3529125808864943e-05  5.5128715281912044e-10  2.5668387309460999e-07  9.5026812654009307e-08  6.6345603692944934e-05  1.0520933657441911e-04  1.1259042427972833e-16  2.4824523467230931e-05  1.0192418104901673e-05  -3.2748231056982266e-17  -1.4402005164012748e-15  6.6977090814927050e-04  1.2486780197152141e-03  -6.6011829397251982e-17  1.1284260471741997e-03  2.0380173135645571e-04  4.0792426053932112e-04  4.1444094182076371e-06  2.6615500983216430e-16  6.6390917642544714e-06  4.5237925384206158e-06  5.8784310478919679e-05  2.1990089896842060e-04  1.5204547876054226e-08  2.2214977728945818e-04  5.7379614899889374e-04  7.9461890858118325e-04  1.3683073359491303e-03  -3.0081812698961184e-18  2.9763548363954110e-04  4.1992511892002662e-06  5.6997698278820052e-06  -2.4294598569109048e-14  -5.1131095852556775e-17  4.3814604167903231e-06  9.4815681479681210e-16  -3.1321521993360809e-18  6.0057433509480468e-09  2.4898983680001201e-04  -3.8409131735643723e-16  1.0275011018914755e-04  -6.5931080263823521e-14  -1.8162429635412191e-17  1.0120836096407242e-03  5.7177561