<?xml version="1.0"?>
<VTKFile type="UnstructuredGrid"  version="0.1"  >
<UnstructuredGrid>
<Piece  NumberOfPoints="6486" NumberOfCells="12696">
<Points>
<DataArray  type="Float64"  NumberOfComponents="3"  format="ascii">0 2.5 0  0 0 0  2.5 0 0  2.5 2.5 0  1.25 0 0  2.5 1.25 0  1.25 2.5 0  0 1.25 0  1.25 1.25 0  0 0.625 0  0.625 0 0  0.625 2.5 0  0 1.875 0  2.5 0.625 0  1.875 0 0  2.5 1.875 0  1.875 2.5 0  1.770833333333333 0.7291666666666666 0  0.7291666666666666 1.770833333333333 0  0.9375 0.625 0  1.875 1.5625 0  0.642361111111111 1.163194444444444 0  1.341594827586207 1.883979885057471 0  0.46875 0.46875 0  2.03125 2.03125 0  0.3626104797979798 1.513178661616162 0  1.381740196078431 0.4564950980392157 0  0.9375 2.172619047619047 0  2.172619047619047 0.9375 0  2.096354166666667 0.4036458333333332 0  0.4036458333333333 2.096354166666667 0  1.684027777777778 1.163194444444444 0  0.3418803418803419 0.8693910256410255 0  1.642742622813391 2.162164207604464 0  1.275619849389031 0.8465650753054845 0  0.9136284722222221 1.434461805555556 0  1.732437511238546 0.3406962303960658 0  0.9714402568595876 1.029779313093998 0  1.52281746031746 1.485615079365079 0  2.1875 1.71875 0  1.06819722569879 0.2997236128493951 0  2.136114211309524 1.303478422619048 0  0.3125 0 0  0 0.3125 0  2.5 2.1875 0  2.1875 2.5 0  0.3200021620376328 1.192323085056694 0  0.6738456129277992 0.8304377375553881 0  1.757891808928991 1.861952730357003 0  1.5625 0 0  0.9375 0 0  0.3125 2.5 0  2.1875 0 0  2.5 0.9375 0  0 0.9375 0  0 1.5625 0  0.9375 2.5 0  2.5 0.3125 0  0 2.1875 0  1.5625 2.5 0  2.5 1.5625 0  0.7448220909826522 0.3003573636608841 0  1.027298850574712 1.871151477832512 0  1.331260495098891 2.197262878816185 0  1.207917681892289 1.582765010956622 0  0.4339993447432606 1.801186844743261 0  0.6337298768939392 1.443093039772727 0  2.049851190476191 0.6826636904761904 0  0.6584821428571428 2.219122023809524 0  1.89575676467455 0.9798457973793544 0  1.437570562095628 1.059380588255917 0  1.502090052505845 0.6987070896496241 0  0.2040860661083546 1.705323965099331 0  0.2083333333333333 0.46875 0  0.5070952039991439 0.2211150679997147 0  0.6916302856529919 0.5813591430410241 0  2.265625 1.953125 0  2.2265625 2.2265625 0  1.886424081252096 2.243391360417365 0  1.40625 0.202164758520858 0  0.2269345238095238 0.2269345238095238 0  1.152730869673694 0.5225850378741401 0  1.885631899587912 1.312095130148776 0  1.614808884009367 0.9049784971014416 0  1.890095442220658 0.5126535558463003 0  2.323168682795699 0.46875 0  2.268811725689575 0.2304742875213018 0  0.6002389442105756 1.967426444210576 0  0.1768313172043011 2.03125 0  0.2311882743104251 2.269525712478698 0  2.03125 0.176831317204301 0  2.280262553344767 0.6954945504579233 0  1.979219539285994 1.809922269642997 0  2.336309523809524 1.09375 0  1.09375 2.336309523809524 0  0.9314042474388009 1.662973812215543 0  0.1634067999087722 1.40625 0  2.337090640094896 1.40625 0  1.141616997467638 2.069311773587991 0  0.46875 2.338939559681489 0  1.542440307908715 1.734944797244472 0  1.556713687786879 1.956977865354753 0  0.8264238995344066 1.975424467820646 0  1.466326331454725 1.275271369760862 0  1.655675324257095 0.5444159974393489 0  0.3385416666666666 0.6479255698005697 0  0 0.78125 0  0.5236073939200119 0.984090461540625 0  2.091665741047893 1.519793517904215 0  1.71875 2.5 0  0.5356538886262603 1.623137930505009 0  0 1.09375 0  0.1932884281517095 1.015625 0  0.8569313582417669 1.2198915584249 0  0.8876981284879677 0.8329884081524883 0  1.115618488474214 0.7219586973356271 0  1.186950366204949 1.043465130075318 0  2.057459118787237 1.110823087309335 0  1.830651283878689 2.049810069572418 0  1.689107969301489 1.367247437031697 0  0.4921048768039656 1.298643370653124 0  0.8213975694444444 2.336309523809524 0  2.03125 2.5 0  1.049729400480002 1.283723261332814 0  1.308101375801673 0.6489479469700392 0  2.5 2.34375 0  0.4968777175037714 0.7562964879736076 0  1.40625 2.5 0  1.501347663534097 2.307027627307738 0  1.602813712048603 0.1926218191360736 0  0.8393082906308107 0.463778306132633 0  1.682663349152719 1.598471865581041 0  0.7774174680851571 1.560004941327907 0  1.554204170364662 0.3898593897892066 0  1.842184459051087 0.186443880058197 0  1.358107417651776 1.696381759610015 0  1.18859291992392 1.77598670078022 0  0.1875331222687418 0.7609599743339348 0  1.339536743965101 1.422080365801479 0  0.7788179348750389 0.9955343414928611 0  0.9062978492805438 0.1919636509126373 0  1.256007360640958 0.3160320559396114 0  1.09375 0 0  1.174986727221844 0.1594990293443933 0  2.34375 1.796875 0  2.318026474511116 1.589177949022232 0  2.34375 2.5 0  1.672742954892153 2.332882724550692 0  0.2683637361947215 1.874801596909639 0  2.174770749820102 0.5581009131310781 0  1.443279522965991 0.8870068372898454 0  0.3385416666666667 0.3571428571428572 0  0.78125 0 0  2.060421048269335 2.314363248763811 0  1.088078737088509 0.8967352118723447 0  1.087825368444708 1.454931510884769 0  2.018308232129541 0.8548495425854904 0  1.943987311736842 0.3246298523011434 0  1.71875 0 0  1.85337849796276 1.144833312386208 0  2.3486328125 2.1044921875 0  1.407588788651747 2.042968789119587 0  2.336309523809524 0.865366648092144 0  2.34375 0 0  2.5 0.15625 0  0.15625 2.5 0  0 2.34375 0  0.1638044648294291 1.242263417405867 0  0.356216654757926 1.032569427322806 0  0.3188217956111817 1.355736727000647 0  0.5924956460852111 0.36112522004736 0  0.6594216488965849 0.1603472116132387 0  1.841804599497131 1.72214349266521 0  0.15625 0 0  0 0.15625 0  2.115898634821499 1.894570904464496 0  0.7821877980253907 0.7129993435924866 0  1.003820447087786 0.4516053462784233 0  0.477562948779147 1.138333049293613 0  0.719493678605015 1.305655360135975 0  0.9772457618587566 2.020350128938537 0  0.8764738248887107 1.826219722709673 0  1.254787875123819 2.339010653832026 0  2.343597354852534 1.249982759769001 0  0.78125 2.5 0  0.46875 2.5 0  2.5 1.40625 0  1.09375 2.5 0  2.5 0.78125 0  2.5 1.09375 0  2.03125 0 0  2.5 0.46875 0  1.40625 0 0  0.46875 0 0  0 0.46875 0  0 1.40625 0  0 1.71875 0  0 2.03125 0  2.5 1.71875 0  2.5 2.03125 0  2.005424054645407 1.653223486966518 0  0.1538730573856537 1.559850281736677 0  2.33984375 2.33984375 0  1.166539506212474 1.922878979538754 0  0.3914885633949916 1.65887232812171 0  0.5795503163042564 1.766243562569382 0  0.399533125920212 1.946786875081388 0  0.7866324979014098 2.127719094551316 0  0.3654683023546834 0.1495701132219454 0  0.1527388747131078 0.6116379440619215 0  2.013737577140188 1.391056634712135 0  1.17635437372994 2.213329084238133 0  1.737118141866284 1.010577140843115 0  2.200707118087222 1.164723314085963 0  1.697018908736685 1.993548551451517 0  0.5387621649009668 0.6070503962352419 0  2.032805785855952 0.5330427622570983 0  1.082699501358059 1.667818725183932 0  1.503819781540653 0.5468420196858188 0  2.015409142866072 2.175941657590429 0  1.752057611265444 0.869642097111018 0  0.612251684107783 2.356045720700959 0  1.902817102342857 0.6607642211999982 0  2.159616561739693 0.7867739969338844 0  0.5120038350106624 2.197302352398502 0  1.888200216011548 1.919501662489862 0  1.495909909726654 2.16028358757309 0  0.489139876703609 1.443203008943564 0  0.8819175670410521 0.3301172743913011 0  1.882591144370812 0.8155965192707721 0  1.133979796994841 1.172526771862882 0  2.206217447916667 2.084147135416667 0  2.20361328125 2.36279296875 0  1.395746985657004 1.556054166359645 0  1.704383111516207 1.734750450338683 0  0.9575737847222222 2.36274223823052 0  1.035150984253136 0.1302833343179028 0  1.383966125325753 0.7651479963479179 0  1.64003252158672 0.6824316405528895 0  2.22550785055421 1.487078576356817 0  1.760964431499756 1.48495222505201 0  1.276460980673788 2.004207003584658 0  0.1341477688427096 1.828777507920502 0  1.542261434180652 1.155296658359034 0  1.334627911613854 0.9696897472490321 0  1.30794231473696 1.119420615785191 0  0.7028260459857245 0.4438906910721139 0  1.625757433094055 1.84268057552138 0  0.9818707849053143 1.165603626132254 0  2.0086489901463 1.243134585689553 0  1.934584460420609 2.374094051915812 0  1.798434376789567 2.38671361912528 0  1.206314791201715 1.382064292497919 0  0.6333752893366955 0.7023738550008095 0  0.7796219811205605 1.42573253164258 0  1.564399711917382 1.026040828857629 0  0.3385416666666666 0.4889012896825397 0  0.1041666666666667 0.390625 0  0.989112246382566 1.543537365516289 0  2.025724425454636 0.9846960595520872 0  0.6602885475034063 2.086117390485779 0  1.607130551925032 1.267198646640915 0  0.1317864544877056 0.8896173683400176 0  1.755387840017567 2.230364320056445 0  1.301540702984401 0.1216289692748247 0  1.433170657577442 0.3331052752740999 0  1.500459610550388 0.113513924782439 0  0.6494291520606965 1.029586599619295 0  1.010146149868299 0.794897284196169 0  0.3700844198238017 2.235390157870766 0  0.3360891767780704 2.36656279435396 0  1.876856241037701 1.437150669863757 0  1.778674102957329 1.245979347269706 0  0.5472829890977179 0.1005517127039925 0  0.4669074189005698 0.3416784232954367 0  1.472765289289269 1.850899166481903 0  1.555853593327178 1.608452097912802 0  0.6708955559113426 1.646561631116984 0  0.8164699620322933 0.5924479455478063 0  0.3167738989468366 1.758696809749795 0  0.2788007305565096 1.605499483471246 0  0.7821720982350511 0.181524936294752 0  1.376812251214195 2.313340247908297 0  1.785652202614777 0.5962261755537186 0  1.761467296310972 0.4679567244718574 0  2.2265625 1.8359375 0  2.3828125 1.9140625 0  0.5279531607054191 2.071552361614785 0  2.397573269551114 0.234375 0  2.383578172599618 0.3589298466020009 0  0.1024267304488855 2.265625 0  0.1164218274003825 2.141070153397999 0  0.2696857594953064 2.135405441512016 0  2.164961300137334 0.1375322943529536 0  2.137757548369486 0.2724194778647587 0  2.238873711826398 0.3626419179496562 0  0.1001414910226386 0.234375 0  0.2176339285714286 0.3478422619047619 0  0.2503620791333544 0.1061694061057066 0  2.336445461915368 0.1250451055247424 0  0.2154004640409726 2.3918124
[...]
<PointData  Scalars="f_124-3"> 
<DataArray  type="Float64"  Name="f_124-3"  format="ascii">2.3668743049488488e-12  2.2967962719228525e-06  2.9798926737524748e-22  4.7066309051163265e-20  2.3406592163070376e-09  3.6403449913765596e-16  7.7344766140781550e-13  2.8027811812392483e-03  4.8406831992641458e-05  2.6757195373923615e-02  1.8596647202070814e-06  2.6085793983636722e-12  9.2069732300306823e-07  4.9114786920824059e-19  6.0740317100207024e-15  5.3739386150971732e-17  1.5841327381570348e-15  1.3962587015236645e-09  4.8121081246973549e-06  7.2744068853715415e-04  5.2576847976588513e-10  3.8317879267822800e-03  3.4471293606747861e-08  8.6237377362790545e-03  2.2493610694864478e-13  1.9798498201771875e-04  1.2795805798213336e-07  2.2396934809051568e-09  4.4320928730227897e-13  1.3181700495662520e-15  1.4056056168297554e-08  7.9699903690067139e-08  1.7894932017862433e-02  1.3459764714464891e-11  4.4285494966026845e-05  1.9950661438939408e-04  5.7413647926563814e-12  1.4640392833349563e-03  3.1942031594021426e-07  2.3324296681807421e-13  1.3458043077278083e-06  4.7600736100667868e-12  3.7972765811408206e-06  1.0434629383709855e-02  2.9837773699573857e-18  9.8536507348444328e-18  3.9036390259577038e-03  9.7063390108483773e-03  1.8375226134765643e-10  6.0903775039880703e-12  1.6270908582999384e-07  1.7232105885269021e-12  1.5908243362467915e-18  3.7459040606957651e-17  1.3483252433335894e-02  1.2654933000971722e-04  1.4952786407730128e-12  5.0191531277118411e-22  2.1784455963581718e-09  6.1406681888485605e-14  3.4959957923988364e-16  6.4934210748511062e-05  3.8045697254905860e-07  1.6293917534277124e-10  5.1594906186928416e-06  3.5341386482173785e-06  4.1235999265901244e-04  6.0126252206204182e-13  9.1795756105350332e-10  5.9005244029002840e-10  6.8475833368315212e-06  3.5720792182694761e-07  1.6912721302854396e-05  2.0837174460385570e-02  1.5940255148927531e-04  4.1858808228578360e-03  4.6938772899365529e-15  3.6552110274296854e-16  9.2879436044359017e-14  4.5535472720680614e-10  3.2379489707984430e-03  1.5092079762918018e-05  1.1113063523248114e-09  1.8963719498715791e-07  2.9872566655989595e-12  3.8136697893777313e-18  1.2272058020056177e-19  1.7466978711054842e-07  5.2270032304800678e-08  3.0183481986002320e-10  1.0368596297364165e-16  1.0313357528143659e-15  7.1485988548336644e-12  1.3508792405747420e-14  4.3025282066094092e-11  1.2415871155252662e-05  7.0070627868952810e-04  2.7277512352514844e-14  6.8732082682368732e-09  8.5340400220376435e-11  2.1398258957386154e-08  9.1831476432057808e-10  1.3152262563352680e-07  2.6330432487327095e-06  1.7801969486123685e-09  2.3571694889814532e-02  2.0701877156647883e-02  1.0718331825112183e-02  6.0202469144743886e-12  1.2790221051904908e-14  4.4707577363405577e-05  7.0300638553085050e-03  1.0037253046842221e-02  1.3424416113451646e-03  2.7642436855010496e-03  1.8655591469583064e-04  1.8168217578894998e-04  2.0694848215837997e-11  4.2428816353699933e-12  4.4100021528348025e-08  1.7273080515091445e-03  6.7760500294378120e-11  1.5112520752086338e-16  2.1886053995456571e-04  6.1575412062381540e-06  4.0251206449691034e-19  1.7504618577661186e-02  2.5078907322911633e-13  4.4890706205880508e-12  6.5307956372391375e-12  3.7921915890532887e-04  1.0186477358760964e-08  7.6851127168363472e-05  1.1458529670082413e-09  1.4458066256344567e-14  3.4442819687676586e-07  5.8452905138930492e-07  2.2777133071026339e-02  5.7140933361023737e-06  5.0909979594974952e-03  1.0023208695487079e-06  8.7811110626355156e-08  2.3480801205814543e-08  1.7785635167737694e-08  3.5842450603504009e-15  2.3058725218775190e-14  6.5541147493657494e-19  4.3623147922515698e-13  1.0784513279138961e-06  2.0220722074173291e-15  3.8291926663289520e-06  9.1364373497832795e-03  6.7128771875545106e-07  1.6165389751493426e-15  5.1904881601142600e-04  4.9476454352388380e-05  1.1665821273608568e-11  1.6143773359629895e-14  2.4490954775780786e-13  2.3664674598884173e-09  1.5541799788762178e-16  1.2485800282437171e-09  1.7922626786140573e-15  2.4941545701583829e-20  1.5832100785063896e-22  2.1763438439413990e-12  5.4133538874794381e-11  2.7027200787382724e-03  1.0012048903013581e-02  1.0531772678085321e-03  9.8541449446498132e-04  6.4285201906850202e-06  2.0236383699237360e-10  1.5294822640138036e-06  5.8672478479581877e-04  1.8461639194002432e-13  4.1006515175355035e-03  4.9332896625265213e-05  5.6646457499414920e-03  1.1957310187169477e-03  4.0857455702769084e-08  1.4980760850476800e-06  1.9032278534902283e-11  1.9182563738446748e-14  1.7153547259015047e-12  2.1122600934924653e-12  5.1385806701363805e-16  1.2691825226060023e-12  5.2880338035949988e-18  1.7223374143414585e-16  1.2398569788649977e-16  1.3225323365612225e-20  1.1365716687388204e-10  3.5110123968692447e-06  2.0482630673271954e-02  7.7202490832150119e-04  1.3807251023652091e-05  6.0813694468390777e-08  1.6440352940174394e-16  1.3930519004954968e-17  1.8475454285741481e-11  1.2339004638034024e-04  8.6170779705238919e-18  7.2955355287180258e-08  3.2862257567440241e-05  5.1223991348515848e-06  2.8371659922771740e-07  6.5314138914832296e-09  8.7662606976960638e-05  2.7516187731597714e-02  6.0735363040726218e-11  4.2349811451256574e-10  2.2365891729465282e-08  6.0753438200896734e-13  8.4370391797000361e-11  1.1835882438557774e-02  8.7219469037388644e-14  5.2774241668614650e-06  4.3590258758582900e-08  3.2117984866345250e-14  9.0281670722461534e-09  4.5706248152301084e-11  2.2557582465329650e-11  1.0769858257769084e-13  1.8095259296813857e-09  1.0182529193655816e-11  6.9953418154100734e-11  4.3241275141721563e-04  2.8797849656646336e-05  1.9818014920443930e-10  2.2055688985751667e-04  3.4813747922049715e-15  5.1942958073975746e-17  8.5337722869060591e-07  1.6997874893716082e-09  2.8304310483535628e-11  8.7841593079876086e-08  5.1186208786170018e-06  1.5137882265924325e-08  3.6425334600529815e-13  7.1639352210413635e-09  8.8836418548624103e-09  2.6497366247218509e-06  1.0516302042913811e-06  2.7095194032696368e-05  3.6492737877975215e-05  1.1667105184193693e-03  1.8397015972510508e-09  7.9598558889292046e-04  9.5708135015652934e-11  5.3286792570614606e-15  2.9783988459460935e-14  3.1830200517213705e-05  1.0120106571129661e-02  3.4768580196581789e-04  7.8245406395745623e-07  1.8704113220601074e-02  1.5627504786275021e-02  4.1436160329777328e-05  2.4569509447621828e-11  1.4554807787609309e-08  2.9441517274936049e-07  1.6148461288715499e-02  9.9100455442144104e-13  1.3739151267314841e-09  5.2002445241277637e-09  2.5924952402341136e-11  7.0008479727173053e-03  8.4487165478489955e-04  9.1137348956534633e-10  3.3423930134547117e-11  9.2127403746716249e-10  1.1397032904928536e-08  4.9460687705576162e-06  2.4525865120549337e-03  1.1843454775990667e-08  5.9328559352726016e-08  2.9037639929532816e-05  1.7722615196589559e-03  7.3556017974014606e-06  6.9472077842272967e-05  3.4959330276206968e-06  1.0954335507708761e-11  1.6220378630726683e-10  3.3526739658496834e-11  4.0976060757580761e-14  5.0935119683757266e-16  2.4882508804935758e-08  2.2297443052111965e-21  5.2540034936726602e-20  4.3937515488265700e-10  6.6371760782971845e-09  7.7448162461553284e-09  2.4350036611883120e-18  2.0409354146203711e-17  5.7021719919657353e-18  4.6052497032852075e-03  1.3067947080446042e-02  3.3106468282472259e-05  1.6596502109335582e-20  2.0552334457332647e-11  6.3011937162093804e-10  7.0446554256273428e-05  6.1397300119104948e-13  1.4648209877567768e-04  2.0842449813934874e-06  2.2497987231326447e-06  1.3418100182821511e-07  5.4388660579158495e-08  3.1972024095051860e-03  3.0709044141864730e-07  1.1416886092498411e-15  1.1728890137040998e-17  1.0383530957200498e-16  1.6263124414299531e-17  4.1762784780941366e-03  5.2801728990853516e-07  6.9379467415403419e-07  4.4486172057353948e-07  5.8406935021615837e-13  5.7218492243948341e-07  9.3670380518136162e-13  1.5861220698423193e-02  1.4695925334254223e-05  2.2348544229146698e-06  1.9528772819746533e-14  4.3808565818240521e-07  2.5191694741393862e-13  1.2314353092114965e-09  5.2917942114646252e-03  1.3290294007607711e-15  2.4644718705787032e-02  1.9362139055981106e-03  2.1019479691748269e-12  1.4814459907277365e-12  6.3064591120763521e-14  5.3001114797660056e-12  3.8825389488139893e-04  1.5220736663675979e-03  2.5483297471124214e-15  2.6721106751185536e-13  2.6071492954124757e-03  1.2462037929281495e-12  3.4265315656278838e-08  3.9255194640878335e-13  3.6282852155483779e-14  1.6054432212746372e-15  1.0845749272238315e-10  7.8453245455671416e-06  1.4617770247162225e-11  4.8740774823953758e-04  2.2731763936212283e-02  1.7370803068687695e-02  2.5441506075516616e-02  2.5838586381522089e-10  4.6241428584312598e-05  4.4102439881433921e-03  3.0644348865838251e-15  2.0028543417714517e-15  1.8940257764090345e-12  1.7422618935989012e-11  5.0911901302728868e-19  6.8098369275169810e-11  3.8487097622222236e-12  5.2392045635313170e-07  1.2170955212257773e-16  1.9051519326030577e-10  1.0130456462106055e-11  1.9728551595242348e-08  2.5395426951421951e-07  1.1517682499950378e-05  3.5694058384126584e-04  1.2324668979508426e-03  5.3258895995952003e-15  1.4392544098622740e-07  5.7874067772161375e-04  1.6013277706021736e-04  4.6632277742896878e-13  1.0414246168341549e-02  1.9182146042619221e-03  5.3753521413736488e-03  1.5331771191334582e-03  1.1387115423751507e-11  6.8928806219999215e-04  1.2180748651008757e-06  1.5425407516896363e-05  6.2081088303667823e-08  5.1836698918863137e-09  2.6795355698177438e-14  7.7605331610196103e-05  6.8736135968689871e-07  1.1840929246640408e-04  7.0414529977697240e-10  1.5651357574351498e-02  3.3483054343973165e-03  2.3680140371270891e-14  1.6257617815502219e-06  2.2717279410469137e-11  2.0475284060744475e-14  1.6531697846339591e-04  2.2959925262544398e-02  1.1074987352857940e-02  2.0963142583902428e-10  3.2370188113999471e-12  3.7764586823252636e-06  7.8380172813049942e-12  5.0043494790291867e-13  1.0968372404283086e-04  1.4276639988210920e-02  2.5467271390493370e-21  3.2183912136127927e-05  4.3069029350107492e-05  1.6491949172598577e-04  1.7982342040531728e-16  1.3848419228917633e-05  1.2421107708024000e-04  5.7322288378815242e-09  1.8524214930926909e-02  6.5319730023584511e-03  2.2983220555047256e-12  1.0006531753638111e-04  5.7452487631669355e-09  4.1648473518760832e-11  8.3657186721101836e-12  9.2055102777369592e-04  3.1202876631555910e-03  1.1544938758177498e-06  1.4106113978877298e-09  3.3721350983097468e-11  1.6381606557278963e-12  1.1335422047841285e-06  1.6031757310152545e-05  8.3783261729714108e-12  1.5927983280840578e-10  5.1880013618257729e-16  9.8863945123620207e-09  7.7659818713116241e-08  1.8262167887447819e-10  3.6282448923081999e-10  1.1971692302547934e-06  2.5917250242062316e-16  1.1913500309113253e-05  6.9728994916298955e-04  2.1188279898907382e-13  5.0379917743486343e-18  7.7863420362699479e-03  1.1334593055671400e-08  1.4530718178964692e-06  3.0899951489576100e-06  2.2635894702927605e-19  2.1083826883533554e-06  6.9613243848215657e-03  3.3505844988715830e-11  4.0869201640059115e-16  3.3698865710717057e-14  1.1970267255415326e-12  5.4952946689921719e-04  2.0988556275807892e-02  8.0081243689462172e-05  2.0406395320503441e-02  6.3242298871346142e-08  2.1490217535816203e-08  2.0891890815832453e-03  1.4440831378157916e-17  3.3406851244638072e-17  8.9350485855916304e-04  2.4372447968711140e-10  1.3025458396284158e-02  4.0038902463776706e-09  2.6007014397351372e-02  1.5488944972225604e-15  2.4096435823851096e-04  5.3044022310963143e-04  1.4518512730085760e-07  5.6655902068951476e-08  7.3274573953501020e-09  2.0772455016994967e-07  1.0088174488282485e-07  1.4409244368002816e-06  2.2415890470878598e-05  1.6277778782847574e-12  1.2245412358085057e-14  5.2026920164269784e-16  2.5030145042743276e-10  3.5866561760037668e-03  2.8894914937327711e-14  1.4852180194241131e-03  1.5217378665836839e-07  2.3354934512503675e-03  5.5743945022515972e-09  1.7752797959087583e-04  1.2512431049683943e-08  2.6126258203040140e-12  1.1659194990559197e-06  1.4088896221306919e-17  2.8082382849574530e-14  7.2535057474426715e-10  6.9448303300612445e-13  6.2277447243204581e-07  2.6900405056009402e-14  1.2028973006172626e-12  3.1698255743248378e-07  1.1604064393800755e-04  3.9697339860828302e-06  7.6667320342254943e-20  6.0520916883058238e-19  8.9034750850699836e-12  1.9566082540582788e-07  1.9347239250683731e-06  4.3881618961278914e-06  3.7178326119313774e-09  8.4751090095912260e-16  1.2114341984070981e-05  8.1955079584181080e-10  1.8138809671600230e-04  9.1652290810279018e-03  1.6100313900917115e-10  3.7820423430991896e-06  1.2940501349730795e-07  1.1224036645723189e-11  1.5598687582851804e-11  2.3448735575347753e-08  1.1141060359442159e-05  2.5284443405371150e-05  1.9093882737607401e-15  1.2478870217918575e-09  6.4189931728736578e-07  1.6411592839816991e-08  3.8669619908556948e-09  1.4184949580880542e-10  5.6194836158906394e-08  3.4907199372222163e-13  4.1316514504023986e-14  4.5556660532783432e-09  2.1125607006179014e-18  3.7535342694484998e-12  1.2145785667222393e-12  9.1434385897704538e-11  3.8251495145191824e-16  4.4119995331316768e-15  9.8871634074443432e-16  2.5428034429470578e-22  1.7757691893723840e-09  3.8069707831167810e-15  6.6684418392772594e-03  6.5437630261346268e-03  1.4367682877019410e-07  2.5769382273168310e-12  5.4874330860187790e-14  6.5690010936508013e-08  1.9572417523985549e-17  4.4222836068721291e-16  1.6152711254959752e-05  6.9272185702205942e-06  1.9726114829709365e-19  1.9990369920371455e-09  4.9564988968320389e-06  6.7272098579449022e-05  2.6284545787537664e-11  1.2236720410946572e-10  2.2682478791905003e-19  7.2792200152332585e-03  1.6967843725279722e-02  8.0240562909611717e-03  2.8363559561673896e-07  1.2721278735082326e-21  3.7885567952928793e-09  1.6881279721012901e-02  1.0493359858519722e-17  9.7182715274721097e-11  4.7402465559869766e-11  1.6022873287643267e-09  2.6041838370896122e-10  2.5032354964779547e-18  2.3640377552847805e-07  1.3386790087916638e-13  5.8669794947892051e-17  2.0111974805140646e-02  1.7095799966848003e-04  7.2918571331746530e-07  1.8703296416133769e-13  2.1282673018615889e-16  3.8894905718236857e-06  3.5079977505773762e-10  1.9237958264686212e-05  1.1351133785803831e-07  2.7909164752518553e-17  2.2329399095776588e-05  1.1790612722655445e-02  9.0068448353495460e-04  4.9245302949012060e-09  2.0167316143188956e-03  6.0178425432883474e-05  1.6187173737096323e-05  2.4938728362843371e-13  5.8357761189987036e-10  9.7840816270740837e-04  1.0605512825304527e-03  3.9827219188892394e-04  2.4652761061436973e-06  3.4862375849099862e-05  3.6537325072305798e-03  5.5774201961705891e-04  1.2492944310060988e-15  8.9851580110529416e-17  1.0617285704528178e-05  8.0510669777622077e-05  2.1781574451505489e-05  4.8015395620488636e-04  1.0716857503315155e-02  3.4850787764376934e-10  4.0950329709580311e-14  7.0360961745019457e-08  3.1682628626333809e-14  1.0032719181510742e-16  1.0238505419029603e-15  8.2760312655263075e-09  4.7994617214406681e-15  3.9927976350312021e-04  1.1678082895679062e-12  1.4411301569250087e-06  4.8289982788113142e-11  2.7264393677139311e-11  2.0714537979171084e-06  6.8577089337955212e-06  1.5919920606691764e-13  5.2682071205477548e-10  5.0860044688574139e-17  1.1380103883704279e-03  1.0633613820679901e-08  3.6861025867254175e-20  5.5228092532062052e-03  7.5683652062781348e-03  4.2305448980588647e-08  1.1949230482262133e-11  3.0220936791522859e-05  5.4372426277768376e-06  6.2282997706205234e-16  9.6967943128208247e-06  7.1316398456226243e-19  3.2163985434318820e-15  4.1912880981906968e-07  2.7207998712100986e-12  2.2235130215883171e-02  2.1492058917301722e-05  3.5065289808016516e-09  3.0653115677498347e-08  7.1973418558621487e-07  3.1254602066254158e-13  2.3065542210818691e-13  8.2068331415505316e-08  4.9119213919037320e-04  7.0265768806455100e-08  1.4444837807675518e-10  2.5654889519331077e-14  2.2509715863738337e-15  9.6657226781807866e-09  2.7474825519136431e-03  9.8215870794492315e-13  1.9602364396267930e-15  7.2818386095212510e-09  2.1437451312305406e-18  1.7503511350492920e-12  4.4576800069939815e-17  1.0406830989941450e-11  2.4799143290544247e-12  4.1145987878790895e-13  4.6580674371857874e-05  2.1070272250924311e-12  2.9159534540171947e-16  3.3236672992418831e-14  1.2611517633390834e-12  2.6524816923371783e-16  4.3823182799545044e-16  4.5230081283546224e-16  1.0015504728331197e-02  4.5387251913220098e-03  1.5924397652497611e-03  1.0405764534306025e-12  2.4661496511910987e-02  3.4435425880768263e-07  9.4188194108336268e-16  2.6261962762800079e-07  2.0133842984972799e-12  2.8397911368597790e-06  3.4195663936125666e-10  1.2592335231859844e-22  2.7791737569751582e-06  3.0931245149386587e-11  4.6621880058944675e-03  1.5560663699701983e-02  4.3822717770445734e-15  1.0784285140053779e-18  1.3985042238957457e-19  1.4508383141181744e-19  3.0972008137815355e-04  1.1086085172314288e-13  2.5363197972982608e-02  1.0775862613726460e-16  7.3743746493445496e-18  2.8205642662015713e-21  5.6990761125858149e-11  3.1126194666644633e-10  1.4672214549579425e-05  8.3918068205185743e-12  2.2967197412121325e-07  3.7321782674743441e-12  6.3246744656550490e-03  1.5163883042596069e-02  1.1303599617972473e-02  3.9731491479686855e-14  4.7569200835441334e-06  5.2859080070544696e-03  2.7076911646987018e-02  7.1411544530680056e-08  1.4010812100964994e-03  5.4369279903580071e-05  1.1050250108787250e-08  3.3881730573161097e-04  1.3763667420909874e-04  5.5273371549747489e-05  1.3805164650255381e-03  2.5687558633532091e-02  2.5360723233074717e-02  1.2583159026768359e-13  2.9243956130327912e-09  1.3217436253885954e-07  1.5652197128745156e-12  1.2024816510753409e-02  3.3510075538496069e-15  1.6621218439459185e-04  1.5329366416968494e-08  4.2796701888398326e-04  1.3957211644635285e-02  1.8563883919552914e-06  7.8133471821299799e-08  6.8088217856093725e-08  4.9159795847889317e-03  1.5954232795334683e-03  1.5761212794704978e-13  2.1434203192333752e-14  1.3075003197122726e-02  2.9634257684169734e-13  1.0619086759520254e-14  1.8056649714754297e-04  6.5444155477507644e-08  1.6399068645217478e-03  1.8992341809946260e-08  3.0369292425845716e-03  9.0589595038927660e-14  2.0316295892065942e-05  9.0334587085382959e-06  5.0667490157495618e-11  3.7037783670748131e-10  2.2045080010323870e-10  1.5469182100266387e-11  3.2614196901069002e-11  4.1143740071526719e-09  7.6096487686991331e-04  5.5817172426467448e-09  4.2127781342123946e-06  1.7744189237540387e-05  1.0686890137814668e-06  5.7517812336826426e-07  2.9352506176190690e-12  2.5456589707816450e-06  1.7405980659768870e-10  2.0872832230621207e-11  3.0300200371967820e-08  2.5177762305505179e-08  7.9768159500907002e-05  4.8660192571294060e-05  1.1458870702175908e-05  3.3855435739118850e-04  9.6175386965208780e-17  1.9453832115629209e-10  9.1211412432042510e-11  1.1343630338784777e-09  2.7106973928414087e-09  5.2321528180830506e-10  1.5522553632696126e-12  1.9859183248547414e-07  6.2510566083913857e-10  1.8004388657507306e-13  1.6178447366212846e-16  1.1258353688832899e-12  3.4406429099570636e-06  4.0428757754791127e-04  3.3538539195517654e-03  1.8847233391830154e-07  1.8064353334071795e-16  3.5296025794396575e-03  1.3961723686545369e-09  1.8827232949717914e-13  1.8795496102086133e-02  1.5684801130053662e-14  6.6586400201756454e-14  7.1417659225531305e-14  1.2863765092577648e-16  1.6550875044540955e-13  8.3609236074436424e-12  4.3317242600714206e-04  6.1642314211844424e-07  9.4878353603519866e-06  1.7167725984945106e-03  2.2719400289224322e-10  1.7876402342397874e-11  1.6678001750018906e-06  8.2717536315493650e-19  3.6015405228672300e-06  5.8283870179795341e-06  4.2903868675595302e-04  8.7598141234012056e-04  2.4184004899085411e-10  9.7229474006289465e-12  7.7034930174466370e-13  5.8054662655771137e-12  4.7462185489558375e-12  6.5194318625886064e-20  3.1097992951121665e-16  9.5412098287587636e-09  6.2740337262120121e-12  3.9022686416491030e-17  3.2725687554082748e-17  1.4440071250752877e-09  2.1883908679563876e-10  1.2202130202211710e-09  4.9893165470277176e-09  1.5763964571285831e-10  5.84319763898