<?xml version="1.0"?>
<VTKFile type="UnstructuredGrid"  version="0.1"  >
<UnstructuredGrid>
<Piece  NumberOfPoints="6486" NumberOfCells="12696">
<Points>
<DataArray  type="Float64"  NumberOfComponents="3"  format="ascii">0 2.5 0  0 0 0  2.5 0 0  2.5 2.5 0  1.25 0 0  2.5 1.25 0  1.25 2.5 0  0 1.25 0  1.25 1.25 0  0 0.625 0  0.625 0 0  0.625 2.5 0  0 1.875 0  2.5 0.625 0  1.875 0 0  2.5 1.875 0  1.875 2.5 0  1.770833333333333 0.7291666666666666 0  0.7291666666666666 1.770833333333333 0  0.9375 0.625 0  1.875 1.5625 0  0.642361111111111 1.163194444444444 0  1.341594827586207 1.883979885057471 0  0.46875 0.46875 0  2.03125 2.03125 0  0.3626104797979798 1.513178661616162 0  1.381740196078431 0.4564950980392157 0  0.9375 2.172619047619047 0  2.172619047619047 0.9375 0  2.096354166666667 0.4036458333333332 0  0.4036458333333333 2.096354166666667 0  1.684027777777778 1.163194444444444 0  0.3418803418803419 0.8693910256410255 0  1.642742622813391 2.162164207604464 0  1.275619849389031 0.8465650753054845 0  0.9136284722222221 1.434461805555556 0  1.732437511238546 0.3406962303960658 0  0.9714402568595876 1.029779313093998 0  1.52281746031746 1.485615079365079 0  2.1875 1.71875 0  1.06819722569879 0.2997236128493951 0  2.136114211309524 1.303478422619048 0  0.3125 0 0  0 0.3125 0  2.5 2.1875 0  2.1875 2.5 0  0.3200021620376328 1.192323085056694 0  0.6738456129277992 0.8304377375553881 0  1.757891808928991 1.861952730357003 0  1.5625 0 0  0.9375 0 0  0.3125 2.5 0  2.1875 0 0  2.5 0.9375 0  0 0.9375 0  0 1.5625 0  0.9375 2.5 0  2.5 0.3125 0  0 2.1875 0  1.5625 2.5 0  2.5 1.5625 0  0.7448220909826522 0.3003573636608841 0  1.027298850574712 1.871151477832512 0  1.331260495098891 2.197262878816185 0  1.207917681892289 1.582765010956622 0  0.4339993447432606 1.801186844743261 0  0.6337298768939392 1.443093039772727 0  2.049851190476191 0.6826636904761904 0  0.6584821428571428 2.219122023809524 0  1.89575676467455 0.9798457973793544 0  1.437570562095628 1.059380588255917 0  1.502090052505845 0.6987070896496241 0  0.2040860661083546 1.705323965099331 0  0.2083333333333333 0.46875 0  0.5070952039991439 0.2211150679997147 0  0.6916302856529919 0.5813591430410241 0  2.265625 1.953125 0  2.2265625 2.2265625 0  1.886424081252096 2.243391360417365 0  1.40625 0.202164758520858 0  0.2269345238095238 0.2269345238095238 0  1.152730869673694 0.5225850378741401 0  1.885631899587912 1.312095130148776 0  1.614808884009367 0.9049784971014416 0  1.890095442220658 0.5126535558463003 0  2.323168682795699 0.46875 0  2.268811725689575 0.2304742875213018 0  0.6002389442105756 1.967426444210576 0  0.1768313172043011 2.03125 0  0.2311882743104251 2.269525712478698 0  2.03125 0.176831317204301 0  2.280262553344767 0.6954945504579233 0  1.979219539285994 1.809922269642997 0  2.336309523809524 1.09375 0  1.09375 2.336309523809524 0  0.9314042474388009 1.662973812215543 0  0.1634067999087722 1.40625 0  2.337090640094896 1.40625 0  1.141616997467638 2.069311773587991 0  0.46875 2.338939559681489 0  1.542440307908715 1.734944797244472 0  1.556713687786879 1.956977865354753 0  0.8264238995344066 1.975424467820646 0  1.466326331454725 1.275271369760862 0  1.655675324257095 0.5444159974393489 0  0.3385416666666666 0.6479255698005697 0  0 0.78125 0  0.5236073939200119 0.984090461540625 0  2.091665741047893 1.519793517904215 0  1.71875 2.5 0  0.5356538886262603 1.623137930505009 0  0 1.09375 0  0.1932884281517095 1.015625 0  0.8569313582417669 1.2198915584249 0  0.8876981284879677 0.8329884081524883 0  1.115618488474214 0.7219586973356271 0  1.186950366204949 1.043465130075318 0  2.057459118787237 1.110823087309335 0  1.830651283878689 2.049810069572418 0  1.689107969301489 1.367247437031697 0  0.4921048768039656 1.298643370653124 0  0.8213975694444444 2.336309523809524 0  2.03125 2.5 0  1.049729400480002 1.283723261332814 0  1.308101375801673 0.6489479469700392 0  2.5 2.34375 0  0.4968777175037714 0.7562964879736076 0  1.40625 2.5 0  1.501347663534097 2.307027627307738 0  1.602813712048603 0.1926218191360736 0  0.8393082906308107 0.463778306132633 0  1.682663349152719 1.598471865581041 0  0.7774174680851571 1.560004941327907 0  1.554204170364662 0.3898593897892066 0  1.842184459051087 0.186443880058197 0  1.358107417651776 1.696381759610015 0  1.18859291992392 1.77598670078022 0  0.1875331222687418 0.7609599743339348 0  1.339536743965101 1.422080365801479 0  0.7788179348750389 0.9955343414928611 0  0.9062978492805438 0.1919636509126373 0  1.256007360640958 0.3160320559396114 0  1.09375 0 0  1.174986727221844 0.1594990293443933 0  2.34375 1.796875 0  2.318026474511116 1.589177949022232 0  2.34375 2.5 0  1.672742954892153 2.332882724550692 0  0.2683637361947215 1.874801596909639 0  2.174770749820102 0.5581009131310781 0  1.443279522965991 0.8870068372898454 0  0.3385416666666667 0.3571428571428572 0  0.78125 0 0  2.060421048269335 2.314363248763811 0  1.088078737088509 0.8967352118723447 0  1.087825368444708 1.454931510884769 0  2.018308232129541 0.8548495425854904 0  1.943987311736842 0.3246298523011434 0  1.71875 0 0  1.85337849796276 1.144833312386208 0  2.3486328125 2.1044921875 0  1.407588788651747 2.042968789119587 0  2.336309523809524 0.865366648092144 0  2.34375 0 0  2.5 0.15625 0  0.15625 2.5 0  0 2.34375 0  0.1638044648294291 1.242263417405867 0  0.356216654757926 1.032569427322806 0  0.3188217956111817 1.355736727000647 0  0.5924956460852111 0.36112522004736 0  0.6594216488965849 0.1603472116132387 0  1.841804599497131 1.72214349266521 0  0.15625 0 0  0 0.15625 0  2.115898634821499 1.894570904464496 0  0.7821877980253907 0.7129993435924866 0  1.003820447087786 0.4516053462784233 0  0.477562948779147 1.138333049293613 0  0.719493678605015 1.305655360135975 0  0.9772457618587566 2.020350128938537 0  0.8764738248887107 1.826219722709673 0  1.254787875123819 2.339010653832026 0  2.343597354852534 1.249982759769001 0  0.78125 2.5 0  0.46875 2.5 0  2.5 1.40625 0  1.09375 2.5 0  2.5 0.78125 0  2.5 1.09375 0  2.03125 0 0  2.5 0.46875 0  1.40625 0 0  0.46875 0 0  0 0.46875 0  0 1.40625 0  0 1.71875 0  0 2.03125 0  2.5 1.71875 0  2.5 2.03125 0  2.005424054645407 1.653223486966518 0  0.1538730573856537 1.559850281736677 0  2.33984375 2.33984375 0  1.166539506212474 1.922878979538754 0  0.3914885633949916 1.65887232812171 0  0.5795503163042564 1.766243562569382 0  0.399533125920212 1.946786875081388 0  0.7866324979014098 2.127719094551316 0  0.3654683023546834 0.1495701132219454 0  0.1527388747131078 0.6116379440619215 0  2.013737577140188 1.391056634712135 0  1.17635437372994 2.213329084238133 0  1.737118141866284 1.010577140843115 0  2.200707118087222 1.164723314085963 0  1.697018908736685 1.993548551451517 0  0.5387621649009668 0.6070503962352419 0  2.032805785855952 0.5330427622570983 0  1.082699501358059 1.667818725183932 0  1.503819781540653 0.5468420196858188 0  2.015409142866072 2.175941657590429 0  1.752057611265444 0.869642097111018 0  0.612251684107783 2.356045720700959 0  1.902817102342857 0.6607642211999982 0  2.159616561739693 0.7867739969338844 0  0.5120038350106624 2.197302352398502 0  1.888200216011548 1.919501662489862 0  1.495909909726654 2.16028358757309 0  0.489139876703609 1.443203008943564 0  0.8819175670410521 0.3301172743913011 0  1.882591144370812 0.8155965192707721 0  1.133979796994841 1.172526771862882 0  2.206217447916667 2.084147135416667 0  2.20361328125 2.36279296875 0  1.395746985657004 1.556054166359645 0  1.704383111516207 1.734750450338683 0  0.9575737847222222 2.36274223823052 0  1.035150984253136 0.1302833343179028 0  1.383966125325753 0.7651479963479179 0  1.64003252158672 0.6824316405528895 0  2.22550785055421 1.487078576356817 0  1.760964431499756 1.48495222505201 0  1.276460980673788 2.004207003584658 0  0.1341477688427096 1.828777507920502 0  1.542261434180652 1.155296658359034 0  1.334627911613854 0.9696897472490321 0  1.30794231473696 1.119420615785191 0  0.7028260459857245 0.4438906910721139 0  1.625757433094055 1.84268057552138 0  0.9818707849053143 1.165603626132254 0  2.0086489901463 1.243134585689553 0  1.934584460420609 2.374094051915812 0  1.798434376789567 2.38671361912528 0  1.206314791201715 1.382064292497919 0  0.6333752893366955 0.7023738550008095 0  0.7796219811205605 1.42573253164258 0  1.564399711917382 1.026040828857629 0  0.3385416666666666 0.4889012896825397 0  0.1041666666666667 0.390625 0  0.989112246382566 1.543537365516289 0  2.025724425454636 0.9846960595520872 0  0.6602885475034063 2.086117390485779 0  1.607130551925032 1.267198646640915 0  0.1317864544877056 0.8896173683400176 0  1.755387840017567 2.230364320056445 0  1.301540702984401 0.1216289692748247 0  1.433170657577442 0.3331052752740999 0  1.500459610550388 0.113513924782439 0  0.6494291520606965 1.029586599619295 0  1.010146149868299 0.794897284196169 0  0.3700844198238017 2.235390157870766 0  0.3360891767780704 2.36656279435396 0  1.876856241037701 1.437150669863757 0  1.778674102957329 1.245979347269706 0  0.5472829890977179 0.1005517127039925 0  0.4669074189005698 0.3416784232954367 0  1.472765289289269 1.850899166481903 0  1.555853593327178 1.608452097912802 0  0.6708955559113426 1.646561631116984 0  0.8164699620322933 0.5924479455478063 0  0.3167738989468366 1.758696809749795 0  0.2788007305565096 1.605499483471246 0  0.7821720982350511 0.181524936294752 0  1.376812251214195 2.313340247908297 0  1.785652202614777 0.5962261755537186 0  1.761467296310972 0.4679567244718574 0  2.2265625 1.8359375 0  2.3828125 1.9140625 0  0.5279531607054191 2.071552361614785 0  2.397573269551114 0.234375 0  2.383578172599618 0.3589298466020009 0  0.1024267304488855 2.265625 0  0.1164218274003825 2.141070153397999 0  0.2696857594953064 2.135405441512016 0  2.164961300137334 0.1375322943529536 0  2.137757548369486 0.2724194778647587 0  2.238873711826398 0.3626419179496562 0  0.1001414910226386 0.234375 0  0.2176339285714286 0.3478422619047619 0  0.2503620791333544 0.1061694061057066 0  2.336445461915368 0.1250451055247424 0  0.2154004640409726 2.3918124
[...]
<PointData  Scalars="f_16-3"> 
<DataArray  type="Float64"  Name="f_16-3"  format="ascii">6.7324423570249954e-06  -7.0818823856822949e-10  2.0533316597941287e-13  4.1730335463505358e-07  -6.8007301307285570e-11  4.6070658410261678e-08  1.1729690557307189e-05  2.2310723239984715e-04  2.8656776636895554e-04  2.1381414933410386e-04  -5.0157915012925646e-10  7.6901070064764260e-06  1.1611410806599412e-04  7.2297424674812292e-12  1.0240065804950989e-11  9.6229539219249766e-07  1.0167139841578309e-05  9.5895147022927160e-08  1.7267607344251563e-04  2.2264305421859169e-05  5.4527756633552011e-05  4.9707673611744407e-04  2.6231907107481141e-04  1.3352991964627579e-04  3.2139476453070978e-05  2.0728573308318371e-04  2.3752161769574238e-08  5.1372764368830656e-05  4.2256917038416249e-08  1.1481910382874157e-11  5.8322611187997018e-05  2.2122905813412568e-05  4.8672630727275687e-04  8.5115475240024851e-05  2.0826839244849048e-05  4.6268271094706832e-04  8.3685238153666029e-11  3.4731674339516532e-04  2.2087029280854888e-04  9.6459635200323688e-06  1.4179934308520464e-08  2.3022001900804781e-06  -7.1763519301521736e-10  -2.1335228065006159e-05  1.0344082682831243e-06  2.7343391674391177e-06  2.4588416074141094e-04  5.1407928213140523e-04  1.3010824148762832e-04  1.0843601304282297e-11  -2.5405540154602469e-10  6.4666316566594021e-06  1.9648955805205813e-12  1.2141913760527825e-09  2.2603176855351509e-04  1.9787628203575785e-04  7.7327347569334625e-06  1.4435663720911407e-13  3.7542920791034234e-05  1.4736955688801301e-05  3.8760917324014075e-07  2.1651835398586365e-07  1.9167973941095208e-04  7.3233207779226111e-05  4.3213413630265588e-04  1.4588840833426015e-04  2.8510776229648244e-04  3.2402805152607586e-09  3.4326831133095510e-05  9.2085310484131894e-07  4.4177594992574613e-05  6.7481542804607821e-07  1.6996477977974611e-04  1.2474054991141862e-03  1.9902086717318898e-07  8.4521731915798354e-05  6.7575225229091301e-06  6.3785449137748045e-06  3.1989836616342082e-05  3.6561951940739207e-11  9.1148881945776601e-07  6.4383309746209922e-07  1.5888355032463201e-05  3.7337628646955747e-06  6.6013536254196425e-10  2.6950874812175044e-12  9.4639159352445806e-13  9.6924772561854559e-05  7.2344747367314463e-05  2.4684175574742787e-05  4.8395299512581478e-12  3.3970876651355010e-10  4.5862833414656917e-05  5.0796361760252999e-08  2.4790999348865123e-05  2.9892554484324226e-04  2.1619939376432150e-04  7.2432388146514202e-07  1.0735173214168016e-04  1.7941766901776993e-05  2.6301880279400766e-04  1.8544935695171200e-04  1.0643091813722995e-04  1.3426318454191297e-04  1.0739169395604943e-08  8.8738319847315864e-04  2.2533380926850437e-04  5.7299175139957268e-04  1.0292936031024711e-05  1.4061107933481639e-05  1.9600109017384385e-04  2.2539225884538638e-04  2.3782840999213398e-04  5.4844708930057114e-04  1.9840817900400735e-04  1.6939425171766190e-05  1.5864615195248372e-04  9.2095993270750087e-07  7.2111196343661545e-05  6.9751696472310627e-05  2.8121593669741280e-04  1.9383706031745465e-05  6.0674127413895438e-06  4.7472101789859471e-04  1.3889758985971235e-06  7.2924153319332165e-07  7.2210748010720946e-04  1.3591934369008886e-05  4.4645102647014034e-05  2.0661085749096933e-11  4.3323061388669391e-06  1.4925803788801102e-04  2.8580914443166101e-04  1.2471939338404882e-09  1.1047147317411510e-11  3.6339381176248112e-04  3.1715405437053601e-04  3.6598794931274687e-04  3.2842578327778560e-04  5.4036991896531732e-04  2.0642467571193417e-09  3.2025257522744448e-09  -1.4963742305155122e-10  1.1118241108452461e-11  3.0781289866547994e-06  2.1639305145082626e-06  1.0980161800141587e-06  3.6319174682295507e-05  1.2247609522343685e-04  7.2541653808345665e-11  9.8941917804888662e-06  5.7026565804027206e-05  -3.5611335319691514e-10  1.1621828762549022e-05  1.0341515532036834e-04  4.7879615834937336e-04  6.2440167517142763e-08  1.3153283014747271e-11  1.4444906139969211e-11  5.9963382312546003e-06  3.4258047135719572e-06  1.5440214831430622e-04  2.2745411700158611e-09  6.8509714365772821e-13  1.7737429106231968e-13  6.6549394593289094e-06  1.4975638226996366e-05  2.2375690510593701e-04  3.2722852172619869e-04  2.2321745446970666e-04  5.6456162404615917e-06  4.3715537528449482e-09  8.7096966125385620e-05  -6.5309132160093234e-10  -5.4068335102196341e-08  1.9972492163504752e-05  1.5391404026716675e-04  7.9976989475875931e-07  3.6638937902850049e-04  4.3774561088302138e-04  1.0590441613374493e-04  1.7757886433325288e-04  3.1175804989683892e-05  2.0306467209672894e-07  7.4377431660335858e-06  6.6980417168428090e-06  1.5487338131240332e-07  9.1591383042945830e-06  1.1105575710410925e-10  8.7749640048557827e-09  5.2553107352801875e-12  3.6432492503705467e-13  -1.0114937066875938e-11  -6.3852703894884412e-10  1.4851057311027359e-04  2.1616350944867179e-04  1.6526833371206928e-04  7.4658042005057543e-05  6.9795524883119894e-07  1.0840146635860590e-06  2.9716602684452154e-05  1.9828764149550324e-04  2.1117749542449546e-06  2.0000344953588514e-04  1.8362962472806449e-04  1.5806498928985790e-04  1.0145963099609261e-04  5.6678359110436112e-05  1.9197615931124278e-08  5.7199803087200699e-04  1.0214411470937036e-05  5.7811206695182209e-05  4.3278537823672819e-06  3.6927378695402511e-07  1.2966195443323152e-04  3.4333852401865057e-04  1.9952359231254410e-10  3.6619417846609078e-04  4.5235051502507763e-08  2.3492936133311001e-05  7.6793188678296447e-07  1.6217275510415806e-05  8.5347615218031228e-09  5.1633897433677732e-09  3.8256601576022145e-05  7.2854809024833038e-05  9.4395000283473054e-05  2.3272879376363988e-04  1.7594060130664126e-07  1.1383444579650951e-07  3.2681864851690114e-04  9.8377974942271646e-06  4.1780146736001218e-06  3.4019250594440775e-04  1.5925466578169825e-04  1.7436274616442352e-05  -6.3589214372271519e-11  3.9142347746461886e-06  1.4349645294049578e-07  3.1682827018681576e-06  7.9847339854872783e-05  1.6951562382558217e-04  1.3658266787322791e-04  4.6960201238816034e-05  4.0039466886348824e-05  1.3114496207445635e-04  1.1706999500156844e-05  2.0062702215458588e-04  4.6730502352027503e-04  4.4231036884945519e-06  1.5384845245861354e-05  2.1199887838677754e-05  4.1538900512369428e-04  3.6812083027989940e-04  3.8337361904147515e-04  1.5921565995142192e-05  5.4376812399315160e-04  1.4163004626201441e-03  4.1695440820626076e-04  3.0645818432344994e-07  6.2778147491088178e-05  6.5830903355550545e-05  2.3816000775883853e-04  5.2024344697718667e-05  -3.5870274173272913e-11  1.0648929171001221e-09  6.0219837005355642e-12  6.0838271485750574e-04  7.5148456002744848e-05  3.1181948843190167e-05  1.4117328942917818e-05  3.2280911922871698e-05  2.1486851342397736e-05  2.5163366882322468e-10  1.0826838685795454e-05  2.6287272255099705e-04  2.3614492607002788e-04  2.0748958714952878e-04  3.9699216051992154e-05  1.5711316309397874e-04  1.9224852750140961e-04  4.4972613823702453e-09  4.0281498208498303e-05  8.3194652828108471e-09  8.3050955202328473e-10  8.9593381141597969e-06  2.5018382355144677e-06  6.6507124543265016e-05  3.0833790104242557e-13  4.2299144035167933e-13  2.5602312703496550e-05  4.8685606603958090e-05  4.9387115831245725e-05  2.1398624143722441e-12  2.6790267364160350e-12  1.7446391301070172e-12  -3.0915116365571041e-07  1.9909859007071783e-04  -1.3883894748558911e-09  5.9113558933594920e-13  1.1930906956090334e-05  4.6399580819153861e-05  -5.1605222409451878e-09  1.8911001239336699e-11  6.2828677375301035e-06  5.1816435486815579e-08  2.4660160932654138e-07  8.7332940609586202e-05  1.3454888633512713e-04  5.7651913249640854e-04  9.8394360772136388e-05  7.9078214231754190e-12  1.6202126604081118e-11  2.7810950579399542e-10  2.1164016608930856e-06  5.5131981354696803e-05  1.2301530905422007e-04  1.1823810082914237e-04  2.2177812869266450e-06  7.1996105846523737e-06  1.4471501772423274e-04  8.2810930747591107e-11  6.5853329119624398e-04  2.3053283196147173e-04  2.4380325111286958e-04  7.9422193031916959e-10  -2.3817734723131408e-10  9.9394543882604117e-08  9.6036475308386386e-05  2.3081142410514655e-04  7.0771139278036954e-09  2.4599398893841788e-04  3.7104776677781816e-04  2.2661585786888352e-05  4.2328553035580864e-05  5.8259067198845390e-11  1.6446064899645074e-05  2.1225716633684272e-04  2.2066175783331754e-04  4.9197617016759570e-07  9.4412624836605632e-07  5.0776581874253522e-04  1.4370439347163636e-11  6.5023975013686287e-07  4.3923199722430461e-05  1.2575118521289884e-11  1.0384499790301809e-06  1.2846358027717553e-04  1.0365819186652243e-04  1.2524692810292018e-05  5.2389427657568478e-04  6.3407408943339037e-04  5.5905331993143172e-04  1.0279103198899645e-03  1.2063845213794289e-09  1.8418466023055618e-04  2.2454663667117257e-04  1.7425449068273984e-07  4.3040652310329026e-08  1.9341740239354053e-05  1.1194857950986036e-05  8.6389969202924291e-07  2.6079541653867248e-05  4.5544700523133230e-06  1.7553542453975948e-07  5.6170217929570710e-06  1.2120363928287090e-10  8.7557257433511332e-05  7.7678038564197365e-05  1.3885954146135567e-04  2.4484380923062843e-04  2.0984121171058645e-04  1.9961389133496877e-06  1.3695611642241646e-05  3.1484804520264182e-04  3.2198296176165546e-04  7.0586436456878158e-05  2.1493958980183758e-05  6.4744354377170034e-04  8.7819864971191793e-05  3.1451625673606669e-04  2.0827767345951936e-04  2.2372001349608958e-08  4.8666518132174386e-04  2.8100798925156982e-04  4.3681387796942712e-04  1.4666863709421145e-04  7.4123001655705543e-05  1.6973368885211238e-08  3.6503372425148237e-04  4.0487144552802709e-08  2.4519087379595477e-07  3.5131377387877729e-05  2.9709726479560099e-04  3.6867860139150663e-04  1.3933940707817927e-05  2.3801927847494207e-04  7.9913123379215069e-11  3.6987326676741216e-06  5.0280787920838532e-04  7.3831826202806479e-04  2.2725207354490993e-04  1.3925801062541413e-06  2.1739919393852202e-07  3.9940408434339144e-04  1.4098446661429127e-06  2.8975796007606681e-05  2.2886945271077209e-04  6.8236658895628923e-04  3.4954889840466145e-13  2.9124755944326528e-06  9.2130938170590033e-06  3.3308020173423147e-05  9.5631415262409459e-12  1.7208473019087714e-04  2.0659662309976479e-04  3.7435014328489116e-05  6.9374963641601571e-04  4.9820697726848972e-04  7.0674755741920709e-06  3.8815198282677482e-04  2.1829861175923056e-04  7.9633795794129800e-05  6.4992219300612030e-05  2.8779660235366987e-04  2.7200429151257353e-04  1.3177771965195757e-04  1.1437347131689125e-04  1.0304579448445499e-04  5.4765272542601248e-05  -4.1486317028697073e-10  4.5051787573662102e-04  1.1502985627337900e-05  2.3136466516381335e-05  5.3656690864008672e-12  2.0293305247753054e-10  8.8539934665239208e-05  -1.2274537399955103e-11  1.4173682278783759e-04  -1.4974515245302908e-10  5.3678650727973305e-11  1.6249479604628288e-04  2.0617527999554521e-04  2.1209355547592302e-11  2.0127913546934822e-06  5.5680552543943204e-04  2.0510567287257533e-04  8.9601270324961913e-07  1.9784999840182950e-08  1.1997662105193571e-12  3.8507768337504259e-04  2.2666409128840257e-04  6.4930661957472984e-05  3.4165802274416671e-06  6.8307469597767815e-09  8.0075812262670226e-06  2.9029807013674148e-05  7.8159918801381058e-04  4.6575491661391013e-04  2.3656127091720955e-04  3.1124942501228984e-04  6.7083181418400925e-08  2.2601582806673902e-04  3.2280722379974692e-12  3.9329835507231058e-12  2.3487106778076225e-04  2.9209577567545539e-05  4.8960612513443641e-04  7.7426222991579622e-09  7.0600674056841748e-04  7.6199687179889698e-12  1.6810519238715419e-06  1.0135702283786926e-05  2.1555016000829409e-09  5.3581597464166722e-09  4.9351300470598571e-10  3.2860003310808308e-04  2.6318842562993503e-04  3.9931337216337037e-04  5.0305276634393230e-09  6.5018941948006666e-06  1.9760834649622912e-05  7.9901040688606082e-06  2.4415499468327607e-05  3.8944047016185060e-04  1.4644006565275595e-05  2.1557729857635433e-05  1.0130281890319619e-09  5.1456729312553194e-04  5.0518383581450206e-05  2.7744207562770319e-04  5.7843386113757231e-09  1.5714328076135542e-05  9.5686448721992436e-06  4.0121782094457630e-10  1.3366444218543237e-06  7.1731330746693944e-06  5.0768944869108186e-05  1.1059458262290437e-04  1.8509447113821300e-05  1.6421699447505860e-09  2.1615811829374130e-05  2.1093954858534807e-04  -6.7824213978473033e-10  1.5506750415394236e-12  1.9541777999361896e-12  1.3867773562461765e-05  -1.4426878659694499e-10  1.3412898363363842e-04  1.4656152390263202e-04  1.3096701658558574e-06  9.6570724595590261e-06  1.2448542755143248e-07  1.1523376711219531e-04  4.3374662183376075e-06  4.3058407949752865e-04  2.5329328763802383e-06  1.4150601265739839e-04  9.0117642651861297e-05  1.0262773245564837e-05  1.1516836539423994e-05  -1.3425192413079993e-10  3.6930941534226472e-08  1.8183432216572554e-04  1.1074451132183005e-09  3.8260578034239996e-05  1.3786825700755681e-04  8.4067807698719278e-06  2.9044038798795703e-06  5.6690334479400314e-05  7.4689704840717112e-05  1.6451702725880184e-05  4.3700997235816179e-10  -7.8480169822494089e-11  3.2065458840337515e-11  7.6831900724657721e-08  1.2019162558645825e-08  2.5969575367078210e-07  1.6284241217606090e-06  4.8134080131634449e-06  1.4252067784946975e-06  1.9714575769808369e-13  7.1303664719485338e-05  4.1159335278627473e-11  2.5754239281955730e-04  3.0654849336939755e-04  6.8160375640437178e-06  5.7001471824803266e-05  2.1215258691486851e-05  3.7751204379619929e-05  1.8286632333923032e-06  5.6807354517786194e-06  1.7524578560459327e-05  2.3431992818123371e-05  7.1297544242722779e-13  3.8357740484980508e-05  2.2793797212900218e-04  6.6363956755871039e-07  4.6977344169401564e-05  2.7364869904418838e-05  1.1621662486088661e-12  1.8157144702958531e-05  4.0760018249530374e-04  7.7834849674731710e-05  2.3148888057302613e-04  3.0056125988035632e-13  9.9795839308892232e-05  2.2602269928263897e-04  3.7423980740945691e-11  1.7864381096611554e-05  2.1653887468331470e-11  2.8377674158809684e-08  1.0998174812800599e-04  1.2766027086431115e-06  2.7808282178091298e-04  3.3105339049371805e-05  1.9826001712512564e-06  3.8418120658849565e-04  2.2330033651793264e-04  3.7663612365069793e-04  4.3200254120365331e-07  1.4206997508758852e-09  1.8612060072624475e-04  1.5946805493655307e-04  1.1082018365193605e-08  5.7718819976666246e-07  1.0361571306728887e-06  3.2438346981426792e-04  2.8313261387121142e-04  3.4366599146906321e-04  2.1001130822211780e-04  2.3700905005143868e-04  9.5209878808479129e-05  3.6653193697135734e-07  1.6785787919543672e-06  4.1684525635449247e-07  4.8026635614916294e-07  2.1957816858855303e-04  2.0281126312472911e-06  -2.6291490913586047e-10  7.1912433062222774e-08  3.4883127849344804e-05  1.4940925926452316e-06  1.7540976536351649e-08  3.2030727457744854e-09  4.0213682536838452e-04  4.7183142545329123e-04  6.5458364745078510e-05  2.1669169059303532e-04  5.7988361919820686e-05  1.2421261322752248e-04  1.4413947542415251e-07  -2.0510907049187928e-10  1.1468043417388602e-05  1.4553313649224718e-11  5.8723959301877501e-06  2.0460618161918532e-04  1.4620399417168508e-05  5.4399430502013797e-05  2.7965882235517487e-05  2.4864228512516035e-06  4.7365010082366045e-05  2.7544848496896133e-05  -6.8957821035723284e-10  -1.0990687419465925e-09  2.4800255740725414e-05  -3.3417619485406632e-11  3.3984767280413373e-06  -2.6419549076079242e-08  5.1976575402516749e-05  4.1907509853467783e-13  1.6779044006027833e-04  3.1807159842637997e-04  2.5453755790824471e-06  1.8964571076995954e-05  2.9865350404549817e-04  7.8617496401235941e-08  8.4252015120221599e-06  -6.6671325249765063e-10  1.5715003903560874e-12  1.1496080124937783e-11  1.3470621265244268e-09  4.0280204086048142e-07  8.4951963234502429e-04  1.7445320051059519e-04  5.1855785750060175e-05  7.8981609304790997e-05  1.8216892303152051e-04  3.8828823590268414e-05  1.4706198590879762e-11  1.9818884050278989e-04  5.0442481848633866e-04  3.1093329079954140e-04  2.0508674677179820e-05  4.0139903059483287e-07  9.0649786549503769e-08  5.2366500157143234e-05  2.2317699413815014e-04  2.0459691156476986e-05  6.9949745658874096e-07  -1.0337536771194407e-10  1.6936765616206670e-06  7.6296664100708008e-06  4.2906459665857065e-06  9.7818561970208071e-06  6.8637787905217466e-06  1.2480314849558443e-05  1.8402776454876069e-04  7.6358499922521548e-06  5.6228029578701229e-07  1.2492350369299584e-11  1.4192576052537734e-11  2.0706171845129484e-08  8.3556044396151656e-08  2.5705224743503632e-07  2.2581280384662280e-04  2.2450436777537400e-04  2.2076111928328760e-04  1.0425096571050387e-05  2.2274293733547375e-04  -3.0396623880500224e-10  7.6453558468505131e-12  9.6799458957098122e-05  6.5107323766542202e-06  -7.0645716237132615e-10  2.3586065268439810e-05  1.5231578837934355e-13  -5.8465029846438079e-10  2.1438936566025094e-12  -7.7196793321816796e-07  1.0315445836129315e-06  1.2257179746184686e-05  8.7640125575217689e-07  5.5930562825677239e-07  6.3249893752354761e-07  2.0784598609883281e-04  1.3966793632153369e-05  1.9945682189166623e-04  8.5309419168639710e-07  1.1098406343495478e-06  1.7484144928334627e-13  3.2812003827466646e-08  6.7572684834924185e-05  3.6748345285419522e-04  1.0879043932876316e-05  2.2859714402429498e-07  1.8510602368215116e-05  1.2706242653532144e-04  5.6567529839032739e-04  2.6481921007745772e-04  6.3895087916025451e-06  -5.5980901145152081e-10  4.4220657525110744e-04  2.9394772832021986e-04  7.8844082483602487e-05  5.1303278863633133e-04  1.7295338236819368e-06  7.5946070038284452e-05  2.1017245939579978e-04  1.9917910765262692e-04  1.8827457394492329e-04  2.2040806794169096e-04  4.1447155392967646e-04  1.0553173199605711e-03  1.3909768089896917e-07  2.2200221992151544e-04  1.4367015764264938e-04  9.7121705971155708e-07  5.4363135292213134e-04  3.3864604957794831e-07  2.0278809612348070e-04  1.0525614611373558e-04  3.9671044055337491e-04  3.9501869544208436e-04  3.1333336995969575e-04  1.0553920196865272e-04  3.0073069716744238e-08  5.9542624595591181e-04  5.2405378456239727e-04  5.5788783453275980e-11  3.3336165551398548e-08  6.6107077783337999e-04  1.6905598826958703e-08  1.2994833146424236e-09  3.9326311876441435e-04  1.0630384450141754e-05  5.0429293765077315e-05  3.8444003801038233e-05  4.1963387786238530e-05  4.5097407718128458e-06  1.8525499491836261e-04  1.7668386445447338e-04  1.0269856816838498e-04  1.6830754302682879e-05  9.0894612781061090e-06  9.2962772303460697e-06  5.0391382540433840e-06  4.8954585945427906e-05  2.1634593660688721e-04  1.2967187689121878e-04  1.5165184044587768e-04  8.1525546265852346e-06  1.2452348552146404e-04  1.1256917788567403e-04  3.3139518527474256e-05  2.1823648954974791e-05  1.9877204525784947e-08  3.3790613060347773e-09  6.6163041038407329e-05  1.4820114276056188e-04  1.9590470123907478e-04  1.9215542053801701e-04  1.6665763953724783e-04  1.4273551636620469e-04  4.1374910097603747e-12  4.0073340441867054e-05  4.2480085325916742e-05  3.5030069777434598e-05  4.1558355431658529e-05  2.8477717317703054e-05  4.3723340979530670e-05  1.5729558738484492e-04  1.4610737226165037e-10  3.7771721970420076e-06  6.7656935923284800e-10  2.0816770797674439e-06  3.0515083301492030e-04  3.3022197654660216e-04  2.2743597297184877e-04  9.1561438494208500e-05  5.6667813086500278e-12  1.7624765014191289e-04  1.9974465072129922e-11  3.2968975157895595e-05  7.2978391604367485e-04  1.1309829543108898e-11  2.6662421362453399e-05  2.9926651086929970e-05  1.9567711626258848e-06  3.2336378913790122e-09  9.4806290565231469e-06  2.2183899264124169e-04  3.6680914364356048e-04  1.6318379737949242e-04  2.5158414429555159e-04  1.5269170443820435e-04  9.7295523134465064e-05  1.4345180457784565e-04  9.9953710527919747e-13  1.4762188766449540e-07  4.1592115222417649e-04  2.5389911552058179e-04  2.5367724847907689e-04  2.4358926463960118e-05  1.0705218552120557e-05  5.6668405391130719e-10  8.8423390823604186e-06  6.6697448230192040e-09  8.7410505959507455e-13  7.2087077938149091e-06  5.4314299377530438e-05  1.0942934081554290e-11  3.6100141272779147e-06  3.5230201339911012e-12  1.8472644338181249e-04  2.2583778021154264e-05  3.3477122580587511e-05  4.6125103192008923e-05  2