<?xml version="1.0"?>
<VTKFile type="UnstructuredGrid"  version="0.1"  >
<UnstructuredGrid>
<Piece  NumberOfPoints="6486" NumberOfCells="12696">
<Points>
<DataArray  type="Float64"  NumberOfComponents="3"  format="ascii">0 5 0  0 0 0  5 0 0  5 5 0  2.5 0 0  5 2.5 0  2.5 5 0  0 2.5 0  2.5 2.5 0  0 1.25 0  1.25 0 0  1.25 5 0  0 3.75 0  5 1.25 0  3.75 0 0  5 3.75 0  3.75 5 0  3.541666666666667 1.458333333333333 0  1.458333333333333 3.541666666666667 0  1.875 1.25 0  3.75 3.125 0  1.284722222222222 2.326388888888889 0  2.683189655172414 3.767959770114943 0  0.9375 0.9375 0  4.0625 4.0625 0  0.7252209595959597 3.026357323232324 0  2.763480392156863 0.9129901960784315 0  1.875 4.345238095238095 0  4.345238095238095 1.875 0  4.192708333333333 0.8072916666666664 0  0.8072916666666665 4.192708333333334 0  3.368055555555555 2.326388888888889 0  0.6837606837606839 1.738782051282051 0  3.285485245626782 4.324328415208927 0  2.551239698778062 1.693130150610969 0  1.827256944444444 2.868923611111111 0  3.464875022477093 0.6813924607921316 0  1.942880513719175 2.059558626187995 0  3.04563492063492 2.971230158730159 0  4.375 3.4375 0  2.13639445139758 0.5994472256987903 0  4.272228422619047 2.606956845238095 0  0.625 0 0  0 0.625 0  5 4.375 0  4.375 5 0  0.6400043240752655 2.384646170113389 0  1.347691225855598 1.660875475110776 0  3.515783617857982 3.723905460714006 0  3.125 0 0  1.875 0 0  0.625 5 0  4.375 0 0  5 1.875 0  0 1.875 0  0 3.125 0  1.875 5 0  5 0.625 0  0 4.375 0  3.125 5 0  5 3.125 0  1.489644181965304 0.6007147273217681 0  2.054597701149425 3.742302955665024 0  2.662520990197781 4.39452575763237 0  2.415835363784578 3.165530021913244 0  0.8679986894865213 3.602373689486522 0  1.267459753787878 2.886186079545454 0  4.099702380952381 1.365327380952381 0  1.316964285714286 4.438244047619047 0  3.7915135293491 1.959691594758709 0  2.875141124191255 2.118761176511833 0  3.00418010501169 1.397414179299248 0  0.4081721322167092 3.410647930198662 0  0.4166666666666666 0.9375 0  1.014190407998288 0.4422301359994293 0  1.383260571305984 1.162718286082048 0  4.53125 3.90625 0  4.453125 4.453125 0  3.772848162504192 4.48678272083473 0  2.8125 0.404329517041716 0  0.4538690476190476 0.4538690476190476 0  2.305461739347387 1.04517007574828 0  3.771263799175824 2.624190260297553 0  3.229617768018734 1.809956994202883 0  3.780190884441317 1.025307111692601 0  4.646337365591398 0.9375 0  4.537623451379149 0.4609485750426037 0  1.200477888421151 3.934852888421152 0  0.3536626344086022 4.0625 0  0.4623765486208503 4.539051424957397 0  4.0625 0.353662634408602 0  4.560525106689535 1.390989100915847 0  3.958439078571988 3.619844539285994 0  4.672619047619047 2.1875 0  2.1875 4.672619047619047 0  1.862808494877602 3.325947624431087 0  0.3268135998175443 2.8125 0  4.674181280189791 2.8125 0  2.283233994935276 4.138623547175983 0  0.9375 4.677879119362977 0  3.08488061581743 3.469889594488945 0  3.113427375573758 3.913955730709506 0  1.652847799068813 3.950848935641292 0  2.932652662909449 2.550542739521724 0  3.311350648514189 1.088831994878698 0  0.6770833333333333 1.295851139601139 0  0 1.5625 0  1.047214787840024 1.96818092308125 0  4.183331482095785 3.03958703580843 0  3.4375 5 0  1.071307777252521 3.246275861010018 0  0 2.1875 0  0.386576856303419 2.03125 0  1.713862716483534 2.439783116849799 0  1.775396256975935 1.665976816304977 0  2.231236976948428 1.443917394671254 0  2.373900732409897 2.086930260150635 0  4.114918237574474 2.221646174618671 0  3.661302567757379 4.099620139144836 0  3.378215938602977 2.734494874063393 0  0.9842097536079312 2.597286741306247 0  1.642795138888889 4.672619047619047 0  4.0625 5 0  2.099458800960004 2.567446522665629 0  2.616202751603346 1.297895893940078 0  5 4.6875 0  0.9937554350075428 1.512592975947215 0  2.8125 5 0  3.002695327068194 4.614055254615477 0  3.205627424097207 0.3852436382721472 0  1.678616581261621 0.927556612265266 0  3.365326698305438 3.196943731162083 0  1.554834936170314 3.120009882655813 0  3.108408340729323 0.7797187795784133 0  3.684368918102174 0.3728877601163941 0  2.716214835303553 3.39276351922003 0  2.37718583984784 3.551973401560441 0  0.3750662445374837 1.52191994866787 0  2.679073487930202 2.844160731602957 0  1.557635869750078 1.991068682985722 0  1.812595698561088 0.3839273018252746 0  2.512014721281916 0.6320641118792227 0  2.1875 0 0  2.349973454443689 0.3189980586887866 0  4.6875 3.59375 0  4.636052949022233 3.178355898044465 0  4.6875 5 0  3.345485909784306 4.665765449101383 0  0.536727472389443 3.749603193819277 0  4.349541499640203 1.116201826262156 0  2.886559045931982 1.774013674579691 0  0.6770833333333334 0.7142857142857143 0  1.5625 0 0  4.120842096538671 4.628726497527622 0  2.176157474177018 1.793470423744689 0  2.175650736889416 2.909863021769539 0  4.036616464259081 1.709699085170981 0  3.887974623473683 0.6492597046022868 0  3.4375 0 0  3.70675699592552 2.289666624772415 0  4.697265625 4.208984375 0  2.815177577303495 4.085937578239174 0  4.672619047619047 1.730733296184288 0  4.6875 0 0  5 0.3125 0  0.3125 5 0  0 4.6875 0  0.3276089296588581 2.484526834811734 0  0.712433309515852 2.065138854645612 0  0.6376435912223634 2.711473454001295 0  1.184991292170422 0.7222504400947201 0  1.31884329779317 0.3206944232264773 0  3.683609198994263 3.44428698533042 0  0.3125 0 0  0 0.3125 0  4.231797269642997 3.789141808928991 0  1.564375596050781 1.425998687184973 0  2.007640894175573 0.9032106925568466 0  0.955125897558294 2.276666098587227 0  1.43898735721003 2.611310720271951 0  1.954491523717513 4.040700257877075 0  1.752947649777421 3.652439445419346 0  2.509575750247638 4.678021307664052 0  4.687194709705067 2.499965519538002 0  1.5625 5 0  0.9375 5 0  5 2.8125 0  2.1875 5 0  5 1.5625 0  5 2.1875 0  4.0625 0 0  5 0.9375 0  2.8125 0 0  0.9375 0 0  0 0.9375 0  0 2.8125 0  0 3.4375 0  0 4.0625 0  5 3.4375 0  5 4.0625 0  4.010848109290813 3.306446973933037 0  0.3077461147713075 3.119700563473354 0  4.6796875 4.6796875 0  2.333079012424948 3.845757959077508 0  0.7829771267899832 3.317744656243421 0  1.159100632608513 3.532487125138763 0  0.799066251840424 3.893573750162776 0  1.57326499580282 4.255438189102632 0  0.7309366047093668 0.2991402264438908 0  0.3054777494262156 1.223275888123843 0  4.027475154280377 2.78211326942427 0  2.35270874745988 4.426658168476266 0  3.474236283732569 2.021154281686229 0  4.401414236174444 2.329446628171927 0  3.39403781747337 3.987097102903034 0  1.077524329801934 1.214100792470484 0  4.065611571711903 1.066085524514197 0  2.165399002716117 3.335637450367864 0  3.007639563081306 1.093684039371638 0  4.030818285732145 4.351883315180857 0  3.504115222530889 1.739284194222036 0  1.224503368215566 4.712091441401919 0  3.805634204685714 1.321528442399996 0  4.319233123479386 1.573547993867769 0  1.024007670021325 4.394604704797005 0  3.776400432023095 3.839003324979723 0  2.991819819453308 4.320567175146181 0  0.9782797534072181 2.886406017887129 0  1.763835134082104 0.6602345487826022 0  3.765182288741625 1.631193038541544 0  2.267959593989681 2.345053543725764 0  4.412434895833333 4.168294270833333 0  4.4072265625 4.7255859375 0  2.791493971314009 3.11210833271929 0  3.408766223032414 3.469500900677365 0  1.915147569444444 4.725484476461039 0  2.070301968506271 0.2605666686358055 0  2.767932250651506 1.530295992695836 0  3.280065043173439 1.364863281105779 0  4.45101570110842 2.974157152713635 0  3.521928862999512 2.96990445010402 0  2.552921961347576 4.008414007169315 0  0.2682955376854191 3.657555015841003 0  3.084522868361304 2.310593316718068 0  2.669255823227708 1.939379494498064 0  2.615884629473921 2.238841231570381 0  1.405652091971449 0.8877813821442277 0  3.25151486618811 3.68536115104276 0  1.963741569810629 2.331207252264507 0  4.017297980292599 2.486269171379106 0  3.869168920841219 4.748188103831625 0  3.596868753579134 4.77342723825056 0  2.41262958240343 2.764128584995838 0  1.266750578673391 1.404747710001619 0  1.559243962241121 2.85146506328516 0  3.128799423834764 2.052081657715259 0  0.6770833333333333 0.9778025793650794 0  0.2083333333333333 0.78125 0  1.978224492765132 3.087074731032578 0  4.051448850909273 1.969392119104174 0  1.320577095006813 4.172234780971559 0  3.214261103850064 2.534397293281829 0  0.2635729089754111 1.779234736680035 0  3.510775680035133 4.460728640112889 0  2.603081405968802 0.2432579385496493 0  2.866341315154884 0.6662105505481998 0  3.000919221100777 0.2270278495648781 0  1.298858304121393 2.05917319923859 0  2.020292299736597 1.589794568392338 0  0.7401688396476035 4.470780315741533 0  0.6721783535561408 4.733125588707921 0  3.753712482075402 2.874301339727514 0  3.557348205914658 2.491958694539413 0  1.094565978195436 0.2011034254079851 0  0.9338148378011396 0.6833568465908735 0  2.945530578578538 3.701798332963805 0  3.111707186654356 3.216904195825605 0  1.341791111822685 3.293123262233967 0  1.632939924064587 1.184895891095613 0  0.6335477978936732 3.517393619499591 0  0.5576014611130192 3.210998966942492 0  1.564344196470102 0.3630498725895039 0  2.75362450242839 4.626680495816594 0  3.571304405229554 1.192452351107437 0  3.522934592621944 0.9359134489437148 0  4.453125 3.671875 0  4.765625 3.828125 0  1.055906321410838 4.14310472322957 0  4.795146539102229 0.46875 0  4.767156345199235 0.7178596932040019 0  0.2048534608977711 4.53125 0  0.232843654800765 4.282140306795998 0  0.5393715189906129 4.270810883024032 0  4.329922600274667 0.2750645887059072 0  4.275515096738972 0.5448389557295173 0  4.477747423652795 0.7252838358993123 0  0.2002829820452772 0.46875 0  0.4352678571428572 0.6956845238095237 0  0.5007241582667088 0.2123388122114133 0  4.672890923830735 0.2500902110494848 0  0.4308009280819452 4.783624996516437 0  2.104871305393774 4.438653689007242 0  0.2274454167838428 0.2274454167838428 0  3.446466574593436 0.4359605369011901 0  2.12354112127588 1.217588426759619 0  2.309175236825235 0.7888355970690434 0  2.556178570281936 1.054299163237582 0  0.578683248637
[...]
<PointData  Scalars="f_16-3"> 
<DataArray  type="Float64"  Name="f_16-3"  format="ascii">1.5420702569505718e-31  -1.0065709999155609e+07  -1.4472582149219634e-29  -2.9095813736095243e-49  1.3936911699427486e-10  1.2754393083899235e-32  1.4942606785674922e-36  1.5634250735508352e-10  5.0363039368849872e-18  1.7869816651266792e+00  8.2746690679785465e-03  4.7914642534569362e-36  8.7234260995069286e-20  2.4228110154049176e-33  -5.7529615612017533e-20  -8.6898981722178415e-40  7.1205903947703246e-43  2.7769203762438794e-24  -2.2766802532544795e-21  1.2099290262964813e-06  -2.1054551354736606e-28  -1.4736135307874376e-11  -2.5910832284682941e-26  -4.7410145018386418e-02  -8.0918233321527962e-38  5.4842350299019620e-16  -1.2380375826482907e-16  4.2782745991509629e-29  3.4540464638165661e-31  5.3191660521400412e-26  3.3000611512822963e-26  -1.4571708185379921e-19  -3.7944364170393583e-05  -2.5085912847917604e-34  6.9395119495457386e-13  -5.6986482379702725e-17  -6.2687020605327788e-21  -9.6115506970230429e-10  8.1749875402514967e-23  6.1281611618097959e-34  1.9905050136612074e-10  1.9557738101606524e-27  9.9000244207505102e+02  2.2824878982051462e+06  2.9681177033750110e-45  1.1986891681866928e-44  -2.1522363602042573e-09  -1.2449399760728495e-05  1.6404797581826583e-30  1.7154827996587261e-16  -8.6299664387557315e-08  2.7476971273578166e-33  4.5268079622697678e-25  -3.6516130718725539e-34  2.2833909487204936e-06  7.5492850882249937e-16  -2.3623728131249755e-35  3.2390381546600591e-31  -2.6137046127958612e-25  1.0679113340842877e-38  -3.1325292139849927e-35  1.1034595658870195e-05  -4.5259755101479577e-24  -2.3327932173249306e-31  -6.6651468834219899e-21  1.4894518846864807e-20  -6.7912890978647133e-17  7.9124796913378022e-28  -5.8600792143175084e-30  1.2985061671946897e-24  -6.2370492426336431e-16  1.6261677357276737e-18  -2.4846317732555017e-20  -1.8375043634311239e+03  -1.3795050704588177e-01  9.1904920090851605e-02  -8.5602135749931735e-40  2.3422686100043417e-42  -1.4046114261245970e-37  7.4902413677847387e-15  1.8980144659688132e+04  -4.9551326488827878e-11  1.0819522167371172e-24  4.9889042526472869e-19  -4.3254880173007715e-24  3.0657247296001129e-28  -7.3030569900663482e-28  -4.4333235396014567e-25  3.3152171151821471e-24  5.9648399671729606e-28  -4.5046417864041730e-24  1.0786983360274086e-31  2.4222176421716417e-33  -2.2563736305162361e-30  4.8964697408781793e-33  2.7720750929344107e-20  -3.5058154165730079e-14  6.1327239298541736e-31  4.3320511477604603e-28  2.8485284146658451e-31  -5.6900785095647169e-26  6.9618001282930618e-30  1.9508025078857875e-24  -6.5351378443356113e-19  -1.7418551220403418e-20  6.6127258885777002e-02  5.3816218500131181e-04  6.4716176972713894e-08  -2.1504976770956295e-29  5.0673885241118396e-41  2.2750782684527787e-18  -4.0205685277693331e-09  1.3763822517827463e-06  4.1453323576836058e-12  -5.8445197811937611e-07  6.0368043155512768e-11  -4.7258009729704255e-14  4.7369201439715233e-27  1.0747659011838360e-33  -1.1754843746955241e-22  -3.9969829352010068e-14  2.5905085177613392e-31  -1.8765652521617747e-42  6.0101084430891627e-14  -3.1496578268375310e-14  -1.3508955246137921e-47  -2.1726273215374586e-04  -5.3651419209025317e-38  -1.0093266898186660e-35  5.9983901570459166e-17  -3.9716436750663932e-05  6.4069043502223196e-26  5.4998472286887341e-18  -3.1836093751614384e-18  1.6680541935694006e-21  -1.7051264812088051e-23  -1.9635628994227820e-23  -1.2217804267874556e-01  -5.2639845779004061e-20  3.6921070890887118e-08  1.0560726067569127e-08  -8.7722088234101788e-14  1.1129399815119764e-09  -6.6712249177344532e-11  6.2223939107024371e-37  3.4880079694738693e-33  3.9734303963683573e-48  2.8196502339095838e-37  1.4045040169490221e-22  -1.0148683892353799e-29  -5.6126512641172688e-16  7.2148374596104361e+01  1.7804580492820456e-05  1.6200758587802632e-41  -2.0316536946869652e-09  -1.5769386522096176e-16  1.5817991261800892e-27  -9.4864012034005884e-23  1.8103954581352517e-19  1.0823760278910018e-21  -5.1374874888681441e-42  1.6130869291569198e-29  3.7006868347273879e-33  2.6823731826586451e-26  3.9806728787541698e-30  6.7510834876036018e-32  1.0471799866278669e-28  -4.7840880139399847e-11  -1.6273148958399190e-09  2.3647629854042065e-12  3.6208486661992831e-03  3.6513251795158077e-04  -1.3865067843406706e-29  -6.1909117819846573e+05  -1.7341691706384537e+08  1.0802902866186043e-35  -1.4061097097793274e-04  1.3225370411864170e-08  7.9311722316096328e-12  -1.0213131896580398e-14  1.1837608741859614e-27  -5.4994937127597200e-23  2.2682196523900097e-34  -8.7854367210163260e-31  1.6066671474964353e-34  -3.8720300420336101e-33  -1.4012430219305113e-33  -4.6704532728835363e-37  2.8010321340997810e-36  8.0130580186046369e-34  -4.9826816233921897e-23  3.1936853945775447e-31  -1.3396105650603757e-12  1.5659145770503807e+01  -8.9735725810491022e+03  2.6363696406328310e-13  1.1512430002733730e-15  5.4420156792784516e-22  -3.2760778682820012e-37  -4.6309143363495488e-42  -2.7564774957887694e-32  -1.1632166984492181e-16  -4.2428149526686868e-46  -6.5496512848535559e-25  1.3069381002717574e-19  -4.1579461569806448e-22  4.1116014377426050e-24  4.1557726781785649e-28  3.6382461629070031e+02  -2.2058066697227918e+01  1.9461497013811100e-26  -3.4418647595327967e-32  -2.2099046125816942e-20  -5.7969717944710633e-27  3.9535952802086930e-31  6.3298984975858216e-02  4.3990288170086782e-26  4.8690967643457632e-20  -1.7040950075642455e-17  -1.9734527024890085e-38  6.2217699593810449e-22  2.0808390566265936e-31  -1.8255427551591011e-26  4.0324272789064295e-29  -2.6581293476097964e-27  5.6327063013361360e-33  -1.3141007243787090e-32  -1.0817847829688841e-15  1.1437860561248562e-06  7.4366173676438262e-26  5.3840209883269192e-14  -5.2327611471016266e-40  6.6088226100719169e-44  3.1774324721044823e-23  -1.0470150410772186e-28  -3.3011742681373280e-33  8.6296639315686621e-09  -1.2564461626170139e-14  1.8690086868882931e-20  -1.5438357182490651e-30  1.8023650135237514e-25  3.9651809383830732e-28  6.3797307962729473e-20  -9.1462004032290693e-19  -1.2283540341064727e-13  3.8804662177472482e-16  -1.5682560166142524e-03  1.1773594408079804e-27  2.5802863115603883e-11  4.5909353191277037e-24  2.9296317191799655e-40  6.1679544042623843e-39  -1.3741840045954705e-17  -4.4149306151627876e-02  -3.2247949714525918e-17  -4.4710002222475727e-18  8.0508500618277115e+00  -9.5007460438456637e+03  1.2944052727155603e-17  7.4341249840075959e-28  1.8844413961407967e-27  1.8940961492424323e-20  5.7312241127052200e-05  -1.9004468057865850e-36  9.5311781595841754e-13  5.2897398656292637e-17  -9.5374991501138285e-16  -2.3370799549470438e-09  -5.4291022466462361e-08  -1.6150819486398207e-27  3.2277872766490693e-30  -6.6681137684937982e-26  4.7481110100013277e-22  3.7424777856181846e-01  2.9592929984382857e-02  -1.1431281098193739e-26  -1.7737168593098725e-24  -2.1336828138402408e-19  6.4459416959680032e-04  -1.3666954241968497e-20  8.4320285331794683e-18  -1.4905708690686664e-05  2.8610874616012635e-33  -2.8704883357961330e-22  -7.5344049025590257e-23  2.0759571585896976e-37  -7.4928375192941570e-39  -1.0752736971053438e-27  3.0450962281386434e-29  -7.4993110639415932e-30  8.4707154773946403e-28  2.1136698642100540e-25  -1.0121681382789262e-26  7.9153529419077632e-25  1.3671296683963067e-25  1.6920102980697475e-26  -2.4913027436750561e+07  7.1842380724032837e+03  2.6208765261105128e+05  1.3250808421299607e-27  -3.0183983319632047e-31  -1.1375938532003572e-31  -5.3429033768757135e+07  4.0155761188458973e-20  7.5503814874972358e-10  2.0660771424695941e-12  -2.8820927142903637e-14  7.7026703200493304e-25  4.2321624141057514e-24  1.3290165912993881e-10  -1.3781203251209936e-21  1.0865750588086700e-21  1.9369197280252472e-32  -3.3881123467233326e-35  7.0763016937927376e-45  1.1852413757748181e-02  2.4534220005792911e-24  6.1917866547447325e-23  -2.6434514173937489e-18  2.8734041746993025e-32  1.0688989571671749e-21  9.3137327972288703e-24  6.0556319589002376e-07  -1.4857376003358892e-20  -4.1791662219646035e-22  -6.1010933231503596e-29  -9.6527685572891410e-07  -1.0890052835957533e-29  3.0468430177195172e-30  3.8098035530207644e-09  6.3567598011425242e-32  -4.1815275938849213e-02  3.3983011289879707e-13  -1.3759868946479782e-33  -3.1714149450373010e-35  1.8172896804567439e-24  -2.0697647568574682e-35  9.9013314979845890e-15  5.3149044104629508e-13  -4.4481937828565454e-33  2.5054946986096496e-29  -1.9267635186555147e-09  -1.6139830380978433e-18  2.2417146576402883e-20  -6.8941735343221174e-36  1.1566237334834259e-19  4.7649055387858660e-34  -6.3425847945213531e-33  1.8684787256007214e-17  -3.6496951431192870e-33  1.8963584639736021e-13  1.8835597332080537e-03  -3.5392807528851900e-01  -1.1978845207676638e+01  5.0651769565513147e-20  1.9852969085432211e-18  -9.3485823435713605e-11  -3.5574651041864808e-32  -7.4543802219434612e-33  -3.5811401942770498e-36  -1.8323040218770288e-30  5.0600580830991274e-48  5.1162400683086808e-28  3.6520242330588033e-28  1.5478076255566341e-15  2.5571351234804760e-43  -6.4074169060582871e-17  9.1914884167017390e-33  -7.5274920912719399e-27  -6.4539969381197105e-25  -2.4143001803296939e-19  3.7851599217138612e-15  -4.0247634028368457e+00  1.2231708361791263e-39  -4.0545564857048758e-25  4.2238836509059304e-12  -1.8447329452977769e-11  1.2051167632442179e-36  -2.3571687621096504e-08  -1.5842149514841398e-06  7.5988748243849711e-05  2.1317366283623813e-08  -2.1971877245422239e-25  -1.1423581551442911e-14  1.0703669966594113e-22  5.8527667741680889e-19  6.6645866145699224e-26  -9.0724779782452243e-30  2.8031867300945381e-32  1.2766796434430074e-18  3.2815537290512311e-14  -2.2266232923876597e-03  -2.6114762911500140e-30  1.6611468164341455e-05  4.4887006540537552e-09  -7.4367401476936537e-38  7.3136969490780272e-21  -3.9100160038558565e-18  -2.1722261070458655e-34  1.1701079042988632e-14  6.3004886177531523e+02  1.4494749446588461e-07  2.7947854387840445e-24  3.7454369586857201e-29  -7.9492599449209281e-21  -4.2391366619523748e-26  1.6867293777828951e-37  -2.2484110873841870e-18  7.7463999316469453e-07  7.6123448806928875e-28  3.6989867519902384e-13  9.1118044638279292e-13  -4.9188013916707246e-11  -8.1289558764105273e-28  -1.8594953298358335e-19  2.5574074283808981e-16  -1.6887947852432836e-23  -3.8479008932534983e-04  1.3713937137815744e-10  -4.3875610311031160e-34  3.7469214572541514e-15  9.8463534429905833e-28  -8.0074796881396908e-33  -3.1702872204383133e-35  -2.4064690596828504e-16  -7.7247720261043358e-12  -1.0738796977265729e-23  5.9409642894274715e-28  6.5693732654481284e-33  -8.6687865898613864e-35  -2.8785827946839558e-04  -3.6380645106283949e-18  1.1884792624211920e-33  6.2724939939074935e-31  -8.2025719911255332e-24  -3.0857245682148368e-13  1.1413966631503162e-25  8.0207894335822524e-14  -4.7670684711850481e-31  -1.4197960468169594e-04  1.5853856234233431e-31  3.8551200327153050e-18  4.3762152762006116e-11  -4.9867333116547061e-22  2.9879959641877868e-46  8.2019077964057010e-08  -1.9981061523974368e-26  -2.7946627992021245e-16  5.7673447335153561e-09  -1.0251522188646204e-25  -2.8481299108646835e-22  4.3992479064434681e-08  3.4712168784181069e-33  3.1184549225110492e-42  -6.6781170930426454e-33  4.9150942497896847e-36  1.7385187124739961e-08  3.2390257965020506e-05  -1.9755140184934109e-16  -3.5440313858916053e-04  1.5118165646885704e-25  5.8124799312053966e-18  -6.2962459928124680e-11  3.6694358223427270e-23  -6.9180443114794603e-23  7.5084261507362369e-14  2.3908157385823040e-31  4.1415757899010234e-08  9.4549372749141933e-19  -5.2741314099560876e-01  -6.4037474230162579e-23  -1.8943706872555086e-05  8.2009738620239238e-06  1.0052520588627436e-11  -6.1239289325145583e-16  -6.7166665871353685e-15  1.5403366366529363e-24  -2.0936315288646833e-26  -7.8374026117983783e-23  -4.5638234845031880e+00  -1.3126804616808925e-32  1.1319621175649516e-38  -9.9136111411206786e-42  6.9904111757314274e-30  3.3808562211091699e-13  4.5805828807659894e-40  4.8016499576180316e-03  6.4919269761993631e-10  -5.0224088073304169e-13  6.4227685095856536e-29  -3.8994072739599934e-17  1.4876941581172762e-16  2.2830289672497469e-33  6.4006833343941842e-18  -1.6373188193705987e-35  6.8453430206953796e-31  2.1266219512294473e-24  7.3651510511039811e-35  -2.5614766348286036e-23  3.7103702601780431e-39  2.4472645548148921e-26  -5.5227173420666932e-18  -9.4559894622111765e-15  -3.1537775134561876e+01  2.6317089802037912e-31  4.4536346340476055e-30  3.4430637862191223e-35  -7.6934839545858146e-08  1.1337764132532370e-21  -5.2057983651681766e-21  -1.6048245801744528e-22  -1.3589906557062932e-41  -1.0193531269755467e-08  4.6682337117064655e-29  -3.1729275580615519e-09  -3.3437450942162306e-09  -8.1191444989189318e-24  1.9194616138435345e-17  1.2049743728824475e-25  -6.7362596734205629e-33  -7.4517004140466934e-32  1.2366027311299562e-09  -5.6656602392362907e-07  -8.3287034025822477e-17  -2.6276108960000082e-32  3.8680757508160203e-29  -6.8983011359533404e-23  4.4263589928041175e-20  -2.8828715502606916e-22  5.7754104066332671e-30  8.0125553049737148e-23  -1.5626865429114908e-35  -3.9439512857179181e-28  2.1535307167475070e-12  4.2676476062655326e-35  -1.6719052508830892e-29  3.1362950754773805e-27  -3.8165990159374417e-26  3.1152692766721792e-38  -3.1621350723195575e-38  -6.5111307805724164e-36  1.5058436368796919e-29  -6.6479902444608834e-30  3.6299215066937337e-27  2.3737283524786625e-08  -5.6335351454772718e-10  -1.4925317583855511e-20  3.9199639738565343e-36  -3.5699616539359527e-39  -5.2913018532214507e-21  1.6769557512235919e-43  -4.7449427903992080e-42  -2.6913144544080529e-14  -2.7955646012371513e-17  5.4575301698953320e-28  -4.4479364682092316e-26  -5.5324234224830316e-22  -5.1705878798405746e-08  1.1098570214813451e-31  1.1578686068198420e-32  1.4735430139548208e-26  -1.6601090071809159e+02  -6.0765329160450690e+01  -2.3168299014762010e+00  -8.7299506536934040e-24  -3.9354812425395957e-28  2.8457529854766867e-27  6.5587599206832706e-05  4.6429212331041988e-34  -2.8648265742085834e-29  -2.7648217612006399e-15  5.5136113695175857e-20  7.7164301406760323e-31  -3.7915348758556522e-47  1.1084975000183091e-23  -5.8592141041964114e-39  -9.1068733260605300e-45  -1.4061996375480232e-03  -1.2803189478550355e-16  1.6352776103643074e-23  -8.0866180962929415e-31  1.5165555438256281e-34  1.1930290682912178e-22  -1.0766804303815956e-29  -3.6338799248970231e-02  -2.1440632217420663e-19  4.6950128557939607e-41  2.2862333630655886e-17  2.6082086986586159e-07  -8.3596705905864198e-15  1.8253679645042540e-28  -6.9258475237959613e-12  6.1605033916714014e-15  -5.7975410661936629e-10  1.5187370557699645e-30  3.6019547186734314e-24  1.5328863734994591e+03  -2.6174501187117034e-13  -9.8915063249554978e-06  -1.6505846825997161e-02  -8.3846243810414467e-05  5.6870305127294643e-02  5.6027074655103641e-02  1.2385423783627828e-31  -1.3473930490383718e-33  9.7008209039345799e-20  5.1674148692054432e-18  -1.2328015812722298e-14  -8.6362084471424427e-14  -9.7223561883616290e+04  -7.6163645505839085e-32  -1.4909212810786918e-29  -3.8263537503494276e-09  1.1792029170455367e-38  2.3976429479705948e-29  -3.4619262077606840e-40  4.3763629342123106e-27  -1.8067680770849465e-39  -9.9259739162715217e-10  -2.0330154200660711e-34  -1.8733773753027143e-17  2.5462998181148933e-32  -3.4888808796871236e-33  -7.7156724399699830e+06  -7.1961190420841045e+09  -3.5135066897527157e-36  -1.7359306281293539e-11  7.2592432587858954e-45  4.7768908557628584e+05  2.9967620910367260e-24  -9.7874376956757017e-30  1.2893228568632553e-03  6.9124143032989302e-04  -2.1107743853247492e-22  1.5067740642338094e-30  -4.3057383027377037e-20  -1.7929868657711846e-09  -1.4061436753807848e-42  6.8150535714011039e+03  -8.4357493347933954e-25  4.2396533103810548e-25  1.4898086331717826e-09  3.3160611594377859e-27  -1.0566129357392748e+00  -5.0133454111977739e-19  -2.1335251378527707e-29  -2.7165758309072616e-26  7.6495150328117513e-24  4.7880246021677136e-37  5.2181677730799449e-19  -2.6168626300938161e-24  1.4380898178056213e-12  6.4349179070977911e-26  -1.7853047159281115e-28  6.0895408420358579e-31  2.1500530779253683e-32  -1.7451980443609560e-26  1.9561965523226710e-11  2.7976291149671541e-36  7.3492072988897623e-33  3.8529712433995399e-10  2.3014603163136989e-46  -7.8399996670826413e-35  -1.4792070194500608e-43  -7.1178058475603733e-30  6.4202470840210700e-32  -3.3391342814921494e-36  -4.5886034233090090e-17  -2.1906775414957081e-35  -6.8187373549822344e-36  -2.8518532629858266e-19  -3.4980703862252822e-18  4.8402719566106026e-34  -2.3984458467742213e-32  7.7431165746759187e-35  1.3955853605716715e-08  1.3337708859030504e-08  -2.3030396417662681e-12  6.2427759376482981e-37  9.5232973138901431e-03  1.1850773424199488e-06  6.1208241890036870e-21  -3.0779540335014586e-20  -4.2696428616386584e-33  2.4282711764993535e+04  2.3894095695925834e-27  -3.2848918834045770e-31  -3.5791836178484991e-02  -5.3936725101495289e-15  -5.7993460784908354e+07  -1.4235869090165102e+05  1.3724756375406490e-41  3.2672148627857148e-46  1.9980217092326952e-49  -3.1397365185946889e-49  1.4538031532826684e-14  2.6021251773746411e-37  -2.3368048870149488e+02  5.5918130901398567e-39  -9.9376510959529639e-44  -1.2969370616190299e-32  -4.2888897220985600e-24  -1.9661980641536811e-31  -5.8045510227548898e-19  1.9111604405627042e-33  9.9886012853982224e-17  -8.1912735479805025e-35  -2.6608559561199790e-01  -1.3364114777427534e-03  -2.0782574610074107e-02  1.0226373351125882e-35  2.7255711743132569e+01  -1.7468490171141478e-07  1.4745798910551080e+00  3.6396178009636944e-26  3.8939039989573364e-13  5.6666090738065790e-11  2.7396225512052852e-28  1.4480814514427126e-16  1.4065037355792564e-16  -4.1904416579124729e-18  1.1698111035321989e-13  -6.7378684052021809e-01  2.4906166015116344e+01  2.5774862897522517e-29  1.0050697088216585e-27  -8.4109036830931551e-26  2.3986747502910486e-27  2.3743991735602997e-04  2.1937897467507534e-33  -8.4905054887700669e-17  7.2623448513119984e-28  -3.9795899445474751e-13  7.2008178417803975e-07  2.1582422310623908e-21  3.3153944787088469e-25  5.0234359085808124e-17  1.8276915470394490e-09  5.7923507555544386e-10  -3.2724216418671014e-24  4.4120417250741729e-31  -1.4655384722512448e-06  2.3642540173396351e-31  -5.3604195909969142e-30  -9.7134082693703536e-18  -6.6023854096549909e-19  -3.8214242048423924e-05  3.9619963444284268e-23  2.1840912130292604e-02  -1.0020413790744824e-32  5.6620994819674940e-20  2.5625730131106664e-21  5.5511382033397580e-33  -6.1500919033426589e-26  1.1152655111708704e-24  -1.3706150222278290e-27  -7.5697695852720064e-26  4.6624975388781405e-28  -3.1032339360885534e-14  9.2713245358145516e-28  7.8834142130453362e-21  1.2390326533691559e-13  2.2380257163485251e-22  4.0052172014908208e-23  -2.5064210619126880e-35  2.2294684771465362e-16  3.8058956925177459e-23  -1.4091030807507225e-24  -7.1156316883075282e-26  3.5197407191341147e-27  1.7261888977351611e-18  2.2787044751968605e-18  1.9495878738077210e-19  7.1873037488877442e-12  -1.3868305049882559e-26  2.6911173280149295e-32  -1.7368923884610201e-33  -2.4966663000379836e-28  5.7603879343644369e-26  -6.4258779007964692e-29  2.2784710204613009e-37  4.6783914389927463e-23  3.8152226142754362e-16  -6.7488575504574087e-32  4.5033519698347850e-35  -6.6074495785982369e-28  -3.5062952301863168e-22  9.0620564727596644e-16  -3.5781211188095455e-10  -4.0755478849701550e-23  -7.8198181606786320e-23  -2.4366078112347845e-05  3.8721653917389202e-14  7.5228747051406755e-38  1.1240230133355993e-05  1.7771813327065812e-22  -2.6501268151585453e-37  4.4198214102766229e-38  1.9576684071154141e-41  -1.1473113719587816e-28  3.0971581818596204e-32  -2.7386138896162896e-15  3.3919995174338789e-23  9.1411447976884440e-19  7.6689709264777914e-14  2.8809472710670310e-30  -5.8407946476157418e-32  1.8009431491798484e-22  -3.0377926908412495e-27  2.9941268902611213e-12  -4.1314500040104606e-20  -3.6060509277951738e-17  -5.6417788517559722e-15  -1.07147387989775