<?xml version="1.0"?>
<VTKFile type="UnstructuredGrid"  version="0.1"  >
<UnstructuredGrid>
<Piece  NumberOfPoints="6486" NumberOfCells="12696">
<Points>
<DataArray  type="Float64"  NumberOfComponents="3"  format="ascii">0 2.5 0  0 0 0  2.5 0 0  2.5 2.5 0  1.25 0 0  2.5 1.25 0  1.25 2.5 0  0 1.25 0  1.25 1.25 0  0 0.625 0  0.625 0 0  0.625 2.5 0  0 1.875 0  2.5 0.625 0  1.875 0 0  2.5 1.875 0  1.875 2.5 0  1.770833333333333 0.7291666666666666 0  0.7291666666666666 1.770833333333333 0  0.9375 0.625 0  1.875 1.5625 0  0.642361111111111 1.163194444444444 0  1.341594827586207 1.883979885057471 0  0.46875 0.46875 0  2.03125 2.03125 0  0.3626104797979798 1.513178661616162 0  1.381740196078431 0.4564950980392157 0  0.9375 2.172619047619047 0  2.172619047619047 0.9375 0  2.096354166666667 0.4036458333333332 0  0.4036458333333333 2.096354166666667 0  1.684027777777778 1.163194444444444 0  0.3418803418803419 0.8693910256410255 0  1.642742622813391 2.162164207604464 0  1.275619849389031 0.8465650753054845 0  0.9136284722222221 1.434461805555556 0  1.732437511238546 0.3406962303960658 0  0.9714402568595876 1.029779313093998 0  1.52281746031746 1.485615079365079 0  2.1875 1.71875 0  1.06819722569879 0.2997236128493951 0  2.136114211309524 1.303478422619048 0  0.3125 0 0  0 0.3125 0  2.5 2.1875 0  2.1875 2.5 0  0.3200021620376328 1.192323085056694 0  0.6738456129277992 0.8304377375553881 0  1.757891808928991 1.861952730357003 0  1.5625 0 0  0.9375 0 0  0.3125 2.5 0  2.1875 0 0  2.5 0.9375 0  0 0.9375 0  0 1.5625 0  0.9375 2.5 0  2.5 0.3125 0  0 2.1875 0  1.5625 2.5 0  2.5 1.5625 0  0.7448220909826522 0.3003573636608841 0  1.027298850574712 1.871151477832512 0  1.331260495098891 2.197262878816185 0  1.207917681892289 1.582765010956622 0  0.4339993447432606 1.801186844743261 0  0.6337298768939392 1.443093039772727 0  2.049851190476191 0.6826636904761904 0  0.6584821428571428 2.219122023809524 0  1.89575676467455 0.9798457973793544 0  1.437570562095628 1.059380588255917 0  1.502090052505845 0.6987070896496241 0  0.2040860661083546 1.705323965099331 0  0.2083333333333333 0.46875 0  0.5070952039991439 0.2211150679997147 0  0.6916302856529919 0.5813591430410241 0  2.265625 1.953125 0  2.2265625 2.2265625 0  1.886424081252096 2.243391360417365 0  1.40625 0.202164758520858 0  0.2269345238095238 0.2269345238095238 0  1.152730869673694 0.5225850378741401 0  1.885631899587912 1.312095130148776 0  1.614808884009367 0.9049784971014416 0  1.890095442220658 0.5126535558463003 0  2.323168682795699 0.46875 0  2.268811725689575 0.2304742875213018 0  0.6002389442105756 1.967426444210576 0  0.1768313172043011 2.03125 0  0.2311882743104251 2.269525712478698 0  2.03125 0.176831317204301 0  2.280262553344767 0.6954945504579233 0  1.979219539285994 1.809922269642997 0  2.336309523809524 1.09375 0  1.09375 2.336309523809524 0  0.9314042474388009 1.662973812215543 0  0.1634067999087722 1.40625 0  2.337090640094896 1.40625 0  1.141616997467638 2.069311773587991 0  0.46875 2.338939559681489 0  1.542440307908715 1.734944797244472 0  1.556713687786879 1.956977865354753 0  0.8264238995344066 1.975424467820646 0  1.466326331454725 1.275271369760862 0  1.655675324257095 0.5444159974393489 0  0.3385416666666666 0.6479255698005697 0  0 0.78125 0  0.5236073939200119 0.984090461540625 0  2.091665741047893 1.519793517904215 0  1.71875 2.5 0  0.5356538886262603 1.623137930505009 0  0 1.09375 0  0.1932884281517095 1.015625 0  0.8569313582417669 1.2198915584249 0  0.8876981284879677 0.8329884081524883 0  1.115618488474214 0.7219586973356271 0  1.186950366204949 1.043465130075318 0  2.057459118787237 1.110823087309335 0  1.830651283878689 2.049810069572418 0  1.689107969301489 1.367247437031697 0  0.4921048768039656 1.298643370653124 0  0.8213975694444444 2.336309523809524 0  2.03125 2.5 0  1.049729400480002 1.283723261332814 0  1.308101375801673 0.6489479469700392 0  2.5 2.34375 0  0.4968777175037714 0.7562964879736076 0  1.40625 2.5 0  1.501347663534097 2.307027627307738 0  1.602813712048603 0.1926218191360736 0  0.8393082906308107 0.463778306132633 0  1.682663349152719 1.598471865581041 0  0.7774174680851571 1.560004941327907 0  1.554204170364662 0.3898593897892066 0  1.842184459051087 0.186443880058197 0  1.358107417651776 1.696381759610015 0  1.18859291992392 1.77598670078022 0  0.1875331222687418 0.7609599743339348 0  1.339536743965101 1.422080365801479 0  0.7788179348750389 0.9955343414928611 0  0.9062978492805438 0.1919636509126373 0  1.256007360640958 0.3160320559396114 0  1.09375 0 0  1.174986727221844 0.1594990293443933 0  2.34375 1.796875 0  2.318026474511116 1.589177949022232 0  2.34375 2.5 0  1.672742954892153 2.332882724550692 0  0.2683637361947215 1.874801596909639 0  2.174770749820102 0.5581009131310781 0  1.443279522965991 0.8870068372898454 0  0.3385416666666667 0.3571428571428572 0  0.78125 0 0  2.060421048269335 2.314363248763811 0  1.088078737088509 0.8967352118723447 0  1.087825368444708 1.454931510884769 0  2.018308232129541 0.8548495425854904 0  1.943987311736842 0.3246298523011434 0  1.71875 0 0  1.85337849796276 1.144833312386208 0  2.3486328125 2.1044921875 0  1.407588788651747 2.042968789119587 0  2.336309523809524 0.865366648092144 0  2.34375 0 0  2.5 0.15625 0  0.15625 2.5 0  0 2.34375 0  0.1638044648294291 1.242263417405867 0  0.356216654757926 1.032569427322806 0  0.3188217956111817 1.355736727000647 0  0.5924956460852111 0.36112522004736 0  0.6594216488965849 0.1603472116132387 0  1.841804599497131 1.72214349266521 0  0.15625 0 0  0 0.15625 0  2.115898634821499 1.894570904464496 0  0.7821877980253907 0.7129993435924866 0  1.003820447087786 0.4516053462784233 0  0.477562948779147 1.138333049293613 0  0.719493678605015 1.305655360135975 0  0.9772457618587566 2.020350128938537 0  0.8764738248887107 1.826219722709673 0  1.254787875123819 2.339010653832026 0  2.343597354852534 1.249982759769001 0  0.78125 2.5 0  0.46875 2.5 0  2.5 1.40625 0  1.09375 2.5 0  2.5 0.78125 0  2.5 1.09375 0  2.03125 0 0  2.5 0.46875 0  1.40625 0 0  0.46875 0 0  0 0.46875 0  0 1.40625 0  0 1.71875 0  0 2.03125 0  2.5 1.71875 0  2.5 2.03125 0  2.005424054645407 1.653223486966518 0  0.1538730573856537 1.559850281736677 0  2.33984375 2.33984375 0  1.166539506212474 1.922878979538754 0  0.3914885633949916 1.65887232812171 0  0.5795503163042564 1.766243562569382 0  0.399533125920212 1.946786875081388 0  0.7866324979014098 2.127719094551316 0  0.3654683023546834 0.1495701132219454 0  0.1527388747131078 0.6116379440619215 0  2.013737577140188 1.391056634712135 0  1.17635437372994 2.213329084238133 0  1.737118141866284 1.010577140843115 0  2.200707118087222 1.164723314085963 0  1.697018908736685 1.993548551451517 0  0.5387621649009668 0.6070503962352419 0  2.032805785855952 0.5330427622570983 0  1.082699501358059 1.667818725183932 0  1.503819781540653 0.5468420196858188 0  2.015409142866072 2.175941657590429 0  1.752057611265444 0.869642097111018 0  0.612251684107783 2.356045720700959 0  1.902817102342857 0.6607642211999982 0  2.159616561739693 0.7867739969338844 0  0.5120038350106624 2.197302352398502 0  1.888200216011548 1.919501662489862 0  1.495909909726654 2.16028358757309 0  0.489139876703609 1.443203008943564 0  0.8819175670410521 0.3301172743913011 0  1.882591144370812 0.8155965192707721 0  1.133979796994841 1.172526771862882 0  2.206217447916667 2.084147135416667 0  2.20361328125 2.36279296875 0  1.395746985657004 1.556054166359645 0  1.704383111516207 1.734750450338683 0  0.9575737847222222 2.36274223823052 0  1.035150984253136 0.1302833343179028 0  1.383966125325753 0.7651479963479179 0  1.64003252158672 0.6824316405528895 0  2.22550785055421 1.487078576356817 0  1.760964431499756 1.48495222505201 0  1.276460980673788 2.004207003584658 0  0.1341477688427096 1.828777507920502 0  1.542261434180652 1.155296658359034 0  1.334627911613854 0.9696897472490321 0  1.30794231473696 1.119420615785191 0  0.7028260459857245 0.4438906910721139 0  1.625757433094055 1.84268057552138 0  0.9818707849053143 1.165603626132254 0  2.0086489901463 1.243134585689553 0  1.934584460420609 2.374094051915812 0  1.798434376789567 2.38671361912528 0  1.206314791201715 1.382064292497919 0  0.6333752893366955 0.7023738550008095 0  0.7796219811205605 1.42573253164258 0  1.564399711917382 1.026040828857629 0  0.3385416666666666 0.4889012896825397 0  0.1041666666666667 0.390625 0  0.989112246382566 1.543537365516289 0  2.025724425454636 0.9846960595520872 0  0.6602885475034063 2.086117390485779 0  1.607130551925032 1.267198646640915 0  0.1317864544877056 0.8896173683400176 0  1.755387840017567 2.230364320056445 0  1.301540702984401 0.1216289692748247 0  1.433170657577442 0.3331052752740999 0  1.500459610550388 0.113513924782439 0  0.6494291520606965 1.029586599619295 0  1.010146149868299 0.794897284196169 0  0.3700844198238017 2.235390157870766 0  0.3360891767780704 2.36656279435396 0  1.876856241037701 1.437150669863757 0  1.778674102957329 1.245979347269706 0  0.5472829890977179 0.1005517127039925 0  0.4669074189005698 0.3416784232954367 0  1.472765289289269 1.850899166481903 0  1.555853593327178 1.608452097912802 0  0.6708955559113426 1.646561631116984 0  0.8164699620322933 0.5924479455478063 0  0.3167738989468366 1.758696809749795 0  0.2788007305565096 1.605499483471246 0  0.7821720982350511 0.181524936294752 0  1.376812251214195 2.313340247908297 0  1.785652202614777 0.5962261755537186 0  1.761467296310972 0.4679567244718574 0  2.2265625 1.8359375 0  2.3828125 1.9140625 0  0.5279531607054191 2.071552361614785 0  2.397573269551114 0.234375 0  2.383578172599618 0.3589298466020009 0  0.1024267304488855 2.265625 0  0.1164218274003825 2.141070153397999 0  0.2696857594953064 2.135405441512016 0  2.164961300137334 0.1375322943529536 0  2.137757548369486 0.2724194778647587 0  2.238873711826398 0.3626419179496562 0  0.1001414910226386 0.234375 0  0.2176339285714286 0.3478422619047619 0  0.2503620791333544 0.1061694061057066 0  2.336445461915368 0.1250451055247424 0  0.2154004640409726 2.3918124
[...]
<PointData  Scalars="f_49-3"> 
<DataArray  type="Float64"  Name="f_49-3"  format="ascii">-9.6257934610191129e-05  1.8235479347697642e-09  1.0352011246219002e-10  3.8935794013973983e-04  9.7747297162243405e-10  1.4190070687224774e-10  -9.3140893093081808e-05  -9.9996160016839442e-05  2.3210223396207767e-04  -1.0069539108846001e-04  1.4268526848120374e-09  -9.7653411735045860e-05  -9.9991295534919452e-05  9.3229983612781751e-11  4.9470734830947529e-10  1.2261275004595122e-06  8.0439820298815255e-04  6.5373667554417155e-10  -8.9580314157218773e-05  1.1313545647886677e-08  1.7866543833982047e-05  1.4950567942129814e-03  1.1666994164741468e-03  3.2488739234130290e-08  3.9164640957364773e-04  -9.9978495078950787e-05  9.2444364518459711e-10  -9.7622535535986550e-05  3.4494505623146754e-10  3.4290534165676535e-10  -9.9953104753025098e-05  1.6380516355911373e-07  1.4532950019250164e-03  1.0984652086493485e-03  1.4048508994909310e-08  1.4379475325119312e-03  6.1864335674047269e-10  2.6386568451847777e-04  2.2305628858309016e-04  4.0198621023931692e-06  1.1295613942360088e-09  3.0288418858144206e-09  1.6064971196137918e-09  6.5627876292720505e-07  5.7712187538292620e-05  1.0447840821869124e-03  -8.6639024085492615e-05  5.8383757785878266e-04  6.0173562644642181e-04  7.2167284285197408e-10  1.2001247616734496e-09  -9.6256739371170294e-05  2.4179813859046016e-10  1.0267426294109562e-10  -9.9977287864122522e-05  -9.9996392558872625e-05  -9.8255043838929245e-05  8.8464439161438935e-11  -9.9785895561008958e-05  7.0865460265234339e-05  4.5835505436880136e-09  1.3414852602376166e-09  8.7682929674685574e-05  1.1070042863524035e-04  1.5234905840493583e-03  -9.9994658240970443e-05  4.9412822186897944e-05  4.0284287371870908e-10  -9.9852605425804208e-05  5.8290339462412835e-10  7.4908199566336578e-07  8.4739486624857999e-10  -9.9996418034345783e-05  1.5474853526838297e-04  1.4899360137568305e-09  4.4362429871910246e-07  3.3155691087648713e-05  3.9925178447628064e-04  1.1612868204425534e-03  8.6823211011499827e-10  2.1615520859065605e-09  1.0854427548711634e-09  1.6410793903824065e-07  1.0302894027643385e-09  5.1376893216441265e-10  1.7862525506813007e-10  2.1053715147986430e-10  -9.9975819438407405e-05  -9.9964760470180555e-05  -9.9513364775343185e-05  3.8827354989016736e-10  2.2181922271572797e-10  1.1068986390888637e-04  2.2488873813906529e-10  -9.5873749879452324e-05  3.6564024724287697e-04  -9.9996100272393303e-05  1.6391011443684675e-09  -4.9041056119163843e-07  -9.9270677008199396e-05  9.2821453562334072e-04  1.3255962363275960e-03  -9.6288985956923117e-05  3.1167945808647169e-05  7.2969331185431327e-10  2.3208412896650547e-03  -9.9858455787015137e-05  2.0705775802546964e-03  4.0709570069501388e-07  3.9922206707010795e-04  -9.8285233835992478e-05  -9.9995996581598638e-05  -9.8704901883289807e-05  1.8191401082895120e-03  2.6274160626835769e-05  5.0290419765926639e-09  3.0531557157018922e-05  4.9589544600134420e-10  9.3952315536482913e-04  7.7633508846515278e-06  -6.4479189664518507e-06  -9.9561477234958885e-05  1.0930154518895866e-03  1.1497527939932522e-03  9.7647279315597617e-10  1.8253945090516879e-04  1.5329854525112127e-03  -6.2374797129406356e-05  2.4869276515983611e-04  7.0668735102393271e-10  1.2887546377427260e-09  1.7155951389716563e-04  1.3246184976405082e-04  7.8542625565116982e-10  5.1604510760872882e-10  1.4018176177972414e-03  1.0136505755810620e-03  5.9222203831598276e-04  4.6407910011571894e-04  1.1054706870698165e-03  1.2313475398558841e-09  1.0032977552023071e-09  1.0932753358463488e-09  1.0617428384214004e-09  2.0583322691044738e-06  8.4005823370251413e-08  6.9593410015050263e-04  7.1470695956498938e-04  -9.9995178175200499e-05  2.8188077781774283e-10  4.0876483399530746e-09  4.2304237008122443e-08  1.3035073570762089e-09  9.9902170521409860e-04  3.8402828001698460e-06  1.5848465124623445e-03  4.6874205047479713e-10  4.5404635573808312e-10  6.1505063888014212e-10  4.5798120555948834e-09  8.2997389647358221e-05  7.8874921259716691e-04  1.9193675468741582e-10  1.7252072425728000e-10  9.8678490477406589e-11  -9.6176414715234032e-05  -9.8391893586276792e-05  -9.9989768962376556e-05  1.7331108136892708e-04  -9.9727394744987039e-05  1.6529127192637567e-09  1.3989207643866457e-09  1.4718946363934156e-04  1.7260561117863102e-09  1.2296672293606869e-08  7.7102849242292139e-05  7.2083650316873869e-06  1.1887376516686769e-09  4.3333873765540834e-04  1.0821308055709948e-03  -7.8152007615462182e-05  -4.7360035132151292e-05  -6.9173614954589295e-05  2.6005109197295619e-10  -9.8027486784732357e-05  -9.6832559724707769e-05  2.3073229972328466e-10  -9.8086662015943105e-05  1.0381768879544435e-10  1.2191392356182998e-10  3.8652949927779068e-10  9.0722082403822102e-11  8.1628276474815309e-10  1.5209629195039721e-09  -2.5234584069431626e-05  -9.9996278499985927e-05  -9.9996376338234904e-05  -9.9962677691151436e-05  7.9868144850078987e-08  1.0200363266730968e-05  1.0885848079265404e-05  -9.9996374470259254e-05  4.0560302872167531e-04  3.4592220376309930e-04  -9.9994260972337726e-05  -9.9589878034552764e-05  -9.9992883710705566e-05  -9.9783706044279780e-05  1.5731532187194537e-09  3.0621966068278871e-03  1.3560545876831449e-07  -6.0652215869094398e-05  1.4185928283734001e-09  3.4770612277786323e-10  1.1501684610648016e-03  5.3303914479534145e-05  4.0813711646576008e-10  1.0442149052374841e-03  8.3659003381024209e-10  7.9355780949538605e-04  6.7977256349958988e-10  -9.9298274680777022e-05  5.2948354745820634e-10  3.2735207777184201e-10  -9.9854434731033246e-05  4.3775037237384296e-04  6.7517864992950791e-04  -8.8842860771913668e-05  1.2491262586412095e-09  5.5883589033680209e-10  2.9311582799303941e-04  1.9962381795208379e-04  7.5498369094206385e-04  7.8581964091343950e-04  4.2289308833711364e-04  -9.9343044547615760e-05  1.1497292147207687e-09  1.0114902483277839e-09  7.4348238728201603e-10  4.6824789020074231e-08  2.3231815374242969e-05  4.3060887533520858e-04  -9.9996001495014530e-05  1.1634170772873692e-06  2.3716001466510759e-07  2.0197362901638695e-05  2.4951510486560775e-09  9.8319815844478140e-04  9.2517957744213061e-04  8.3995863338201723e-09  1.1325787606242550e-03  8.8865440936819939e-04  8.6482508119494557e-04  1.1097064108810590e-04  6.7328139239382389e-04  2.1219984238530797e-08  2.0276657135376171e-05  -4.2479461323438662e-05  1.2093040974652909e-03  4.5926219011828182e-10  -9.9962034402184581e-05  4.9982178346557559e-06  -9.7879228178536398e-05  1.1313637190430272e-03  9.4266772163028695e-10  8.7486662528111191e-10  7.7607674431182073e-10  2.1313584010427332e-03  1.5812783357987545e-06  -9.9722311879258955e-05  -9.8873655455825019e-05  1.9911988808957291e-06  2.4310820685365300e-07  1.4648125969045611e-09  1.7577299987712640e-09  1.3734557309367662e-03  4.1729868205280868e-04  -8.1937614797612815e-05  4.0880634686958500e-08  -9.9996351896808835e-05  -9.9996300391674950e-05  1.3205244425437473e-09  2.9891966842535438e-05  6.3105323108228758e-10  6.1736672975182702e-10  1.2555252740831133e-05  6.0300986871077164e-06  -9.9974392112669904e-05  1.2242520233444320e-10  1.4717902570403234e-10  -9.9440762232605955e-05  -9.9886372269576370e-05  -9.9896898274850140e-05  2.8546661374879013e-10  3.1291443723902687e-10  2.5085528355382988e-10  -3.5265520980514982e-08  1.1670585929642953e-06  1.6668764422095603e-09  1.5644724985439519e-10  -9.8308569618244914e-05  -9.2442423044214927e-05  1.6588299687829113e-09  6.2667226747726121e-10  1.3992376170615269e-09  1.0663433152262490e-09  9.8903912350330897e-10  -9.9985884255655486e-05  7.0848030141170237e-05  1.9456144684787365e-03  -9.9986728874087484e-05  4.5503191190242634e-10  1.5903961640359242e-10  1.5463549468789148e-10  1.7103602441799950e-04  -2.0013185417834823e-08  -9.8877908216587706e-05  -9.9991619595009236e-05  8.6167146828677714e-10  4.5918798630570634e-07  5.0858939137459158e-05  5.4085103067783852e-10  2.5346679815252070e-03  -4.6009751087552243e-06  2.0626051541077579e-04  3.0814525329119589e-10  1.2655864291080056e-09  3.2029846036023740e-10  7.4734738880764779e-05  -9.9640154925396881e-05  1.7408324934411501e-10  -6.6135146043431203e-05  5.3085928618061236e-04  1.7152854864349540e-05  2.3821542954053355e-04  4.4014227221636606e-10  -9.4543731563889375e-05  -9.9990958092806748e-05  -9.9996147853978921e-05  2.9924492334009014e-09  9.4661490955727624e-10  1.0111194473951699e-03  6.7565064177289165e-10  7.4021369908995782e-10  9.5645710424405726e-04  5.5753580813558284e-10  5.4383385503071957e-08  1.2456804061762984e-03  1.0386707554550720e-05  -9.9062312624391064e-05  1.7545014283191847e-03  2.8851830579730417e-03  1.8960497629865600e-04  2.3631806209708371e-03  7.0875355402645203e-10  -9.9996419320948714e-05  -9.9994522934205560e-05  2.1272534546823977e-10  1.7365494572273285e-10  -6.7172095624230810e-05  -9.7831943618289794e-05  3.9388489957752412e-04  3.3992536869626455e-06  3.7499434613339048e-08  9.1314361500604399e-10  1.0685087323477514e-03  7.8953576344923467e-10  1.2147982570671421e-03  -9.6699426826739646e-05  -7.0150411481602058e-05  1.7796546894586652e-04  -9.9996324334716239e-05  1.8961070536528563e-09  4.7335323507531824e-04  9.4385917452073534e-04  2.5501924754231986e-04  1.7777782036463886e-06  3.8683055686590961e-05  1.9325011666508343e-03  1.4260794612961540e-06  1.1271976785627471e-04  4.4327544135373611e-05  4.8964724871287948e-10  1.5329340215078050e-03  5.4400711380663751e-04  1.5037936385907255e-03  2.5738395395753855e-05  -8.5411439685500898e-05  2.5371694255385215e-10  6.5106296410314128e-04  9.9870623793247959e-10  1.4177711529607446e-09  -9.9753738067957898e-05  6.3870732697056358e-05  2.6541703333530467e-04  1.2623457177483180e-04  1.9895553654872703e-04  6.9674863960760789e-10  7.6321205906577017e-07  1.6880120625280288e-03  3.5433212857111582e-03  -9.9959499702159991e-05  5.8687918425272703e-10  4.0318553454264113e-10  1.0638689969725008e-03  7.2073823568217981e-10  2.9014527734026594e-04  -7.7876051891907463e-05  1.7417118532828226e-03  1.3287032246687417e-10  1.0933369788731363e-09  3.1495422424198783e-09  9.4250754569813313e-08  2.7021362139116201e-10  -9.9915699672295234e-05  -9.9044465221794094e-05  1.4671857600440689e-06  7.9954277266084501e-04  1.5113193874266295e-03  -9.7021552140070635e-05  5.6228898669529717e-04  1.1921628746017373e-03  2.5766517224801329e-04  6.9489976855344410e-04  3.6425070154129201e-05  -4.1673966757345339e-05  -9.9776287179599804e-05  1.5567514189869915e-04  8.1672443099959139e-04  6.0044141484988020e-04  1.3564411302185988e-09  1.3735415334742752e-03  -9.9069598794635508e-05  -9.9681973762602409e-05  3.8109252939526886e-10  9.9374530018473193e-10  -9.9739491986066404e-05  8.6003759189155535e-10  1.0407362900487814e-03  1.3397540631244199e-09  2.1915698602173691e-10  -9.9996353597261574e-05  5.3477120773422692e-05  5.5483005472983948e-10  7.1120601787486503e-04  9.7952174373633978e-04  4.5995322665357512e-04  9.0577570686144925e-10  1.1964349457456878e-09  2.0418740259613080e-10  1.3676852677307005e-03  -9.9975688879794114e-05  2.6191090862471151e-04  2.5811962709962290e-05  2.7087356717345793e-10  -9.8192288716931138e-05  2.9025445458197950e-08  2.5110719809771647e-03  1.2299450419579127e-03  -1.0383696389399255e-04  1.3146497830872014e-03  7.8742723734842255e-10  -9.9795617655338417e-05  3.0890615648510116e-10  3.5792651078528659e-10  -9.2722489730759659e-05  -9.9360861011126719e-05  1.5239861015528410e-03  7.8197942570498757e-10  3.4818458489461234e-03  4.4362714668135047e-10  1.3384932455712624e-09  2.1792281975594408e-09  1.0649146650062076e-09  9.4438118064484342e-10  9.3677792861597880e-10  1.3378416155217926e-03  8.9536822002988538e-04  1.3772273864405124e-03  1.5179536471031623e-09  -9.6631090491790727e-05  1.0987920163431242e-03  7.0665600915881797e-04  -9.9632999202683428e-05  6.2993568252977411e-04  1.8544973182032916e-04  1.3197953837627340e-08  1.1158912511773633e-09  1.6615368743735711e-03  -9.9944339330435323e-05  4.4033431628561021e-05  8.5428248374057407e-10  4.6015331859380470e-06  3.4341029529720460e-09  1.0260851980923635e-10  1.3959147064658545e-08  1.4247046026490414e-08  1.1778366454580985e-03  -9.9992856782754160e-05  3.0801138948331899e-04  4.4751130025789888e-10  1.1940390734174659e-07  7.7458271816003356e-05  1.5495509606746291e-09  8.9070743500847875e-11  1.3434716133119644e-10  -9.8733221729040095e-05  1.2006474404201285e-09  -9.9995910382928230e-05  -9.9996170131027236e-05  6.6843428367182980e-10  1.1248824824107960e-03  1.1747155420119808e-09  3.4293693697410866e-04  1.3347242527564367e-09  9.5689244857522946e-04  9.8219119132629728e-10  -9.9995787360037121e-05  -9.9990506496154367e-05  -9.8405103274473788e-05  -9.8610690280933561e-05  1.0993774611959301e-09  1.2870168010120532e-09  6.0266761750687947e-05  2.1466516127278409e-10  -9.9896517542181508e-05  -9.0986562288947621e-05  8.1972152799689956e-09  9.3366443487467662e-10  4.0990382557394324e-05  -9.9969190481648376e-05  2.1681268086475235e-05  3.5229147695405893e-10  1.0066385805886488e-09  9.8623878956035028e-11  4.1853758368585183e-10  4.0786442360468986e-10  5.1366408285858166e-10  1.4473601689545996e-06  1.0044541810704225e-05  2.6262507538023451e-07  1.0362210284721980e-10  -6.6781456332013433e-05  3.2369792608440560e-10  -7.1858929538076531e-05  7.7158462986330720e-05  1.9351824435767617e-09  8.9550858813780272e-04  6.0007248978759243e-04  9.0435998248597062e-07  7.1292486990399823e-05  2.0133461446025742e-04  1.8082176598530665e-08  4.3695221339061799e-08  1.8530083605410205e-10  -9.9815622956644798e-05  4.9448276562437839e-05  1.2325260282677587e-09  5.2548170405075432e-05  -9.8301303966359806e-05  2.1724739165005330e-10  -7.8717622475712608e-09  2.4997812621721071e-06  1.0796052464005980e-08  3.9176474189370046e-04  1.2338249300265952e-10  6.0144909439828673e-05  -9.9997729404977483e-05  1.3515713898609213e-10  -9.9061182794782260e-05  7.8815682852543448e-10  6.9393148884441175e-10  5.5790292320562879e-04  2.1864982238046043e-04  5.0703913510088744e-04  1.1140945619618984e-03  2.5731881738082665e-05  6.2515276702852676e-04  -9.2768580206965457e-05  1.4667081738591829e-03  3.5287638788579090e-10  1.4178175812585640e-10  -6.4665558906933164e-05  1.0000076174810056e-03  1.4432474902107999e-09  7.9567769894486648e-10  3.5026267697144415e-06  3.6259195868354872e-04  -1.3687404766476861e-07  3.2958724871784667e-04  7.0679076237518501e-04  -9.5068406118165212e-05  6.9333691960078808e-06  1.1271670864597747e-09  6.8087742664517505e-09  5.7217431427020304e-10  1.3729802286627239e-09  -9.9991174336658742e-05  1.4583603298840251e-09  1.4269669879862506e-09  1.3733754750230548e-09  9.6982809957248002e-09  1.4820655800569348e-09  1.6486832452728502e-10  1.1435690242251087e-10  9.2334378649263390e-04  1.5758460636913186e-03  2.2310076797467073e-06  -9.9836915392494008e-05  -2.7381651988053625e-07  3.7146711586366301e-04  2.6969392382084896e-10  1.1649240555897125e-09  4.3300238041408493e-05  2.3208824166182505e-10  9.9886345148526525e-05  8.9161280134743347e-04  7.7523844217596385e-04  6.2484111484677195e-07  6.4278153131983016e-05  9.5565074902316808e-10  -1.5613016482404564e-05  -8.7494737340205642e-05  1.7594247343460610e-09  1.9793558373847793e-09  1.9440004129953317e-04  9.0693800788587494e-10  3.2180122670446182e-04  2.2288144396548938e-09  -9.9875864795812152e-05  1.1672527873670266e-10  7.6987252582755038e-06  8.9267014130389497e-05  8.3648669683769654e-10  3.0544030493907595e-06  2.8188491236402042e-04  1.1325819612318021e-09  9.7792817840063029e-04  1.6081987408586683e-09  2.2788255129920376e-10  3.8347836228853153e-10  1.1759090674456374e-09  3.9059173608470532e-10  7.4315185851616707e-04  -9.9996416589073807e-05  -9.9334951462788990e-05  -9.9096349935241646e-05  1.7436849974232527e-06  6.4064636710158560e-04  6.1527406138868826e-10  2.3135539341765811e-04  1.3361996260278296e-03  1.4000660520483829e-03  8.9902304188542348e-07  3.8935893262858811e-10  1.9159841607345765e-10  -9.9911161283264589e-05  -9.9995656976948843e-05  -3.3413878960091024e-05  8.4350802611415693e-09  1.0223695744719425e-09  8.9532688140343505e-04  -9.8115501249086242e-05  1.1041927167572195e-03  -9.7666952756231450e-05  -9.6336001111098457e-05  -8.3294235249206080e-05  -9.9996421722736643e-05  -9.7945014995481431e-05  2.2145868461045859e-08  5.4103113218815340e-10  6.6455064281185739e-10  1.3008693962754185e-10  1.5417054405151169e-10  8.3274160703291193e-10  -9.9995660286456296e-05  -9.9996101026000184e-05  -9.9996226754327035e-05  -9.6693598484886125e-05  -9.8490751356307047e-05  1.2495221660361497e-09  4.4247093016670401e-10  -9.9985356567208958e-05  -9.6034328781742875e-05  1.6749738509968176e-09  -9.9177104209561000e-05  9.0992519231903407e-11  1.4816001851906025e-09  7.7911878560720988e-10  -1.0044776032980132e-08  4.1540313865331205e-06  6.4071844424471456e-04  1.0877585681322665e-04  2.8934077300516570e-04  5.2804957534798784e-04  -9.9996348684634127e-05  -1.8089879990279070e-05  -4.6897237499334755e-05  2.8557593580144825e-07  2.4764074317543736e-05  8.9214201454452870e-11  5.5078807893395377e-10  -9.0003731941644726e-07  8.9352094192345153e-04  -9.8874505306602580e-05  8.6255796303145386e-10  -8.6410479601334390e-05  -3.3301491965762298e-07  4.5218619399499177e-04  5.6287324415201183e-06  3.3867699267845976e-06  1.5321374180716322e-09  4.6034010167880866e-04  3.7792991663485471e-04  -9.9982237233570698e-05  1.6944213775061366e-03  1.1282829907358814e-09  -9.3095524768197974e-05  -9.9996237982241955e-05  -9.9996387301918898e-05  -9.9996403200027981e-05  -9.9994671808255163e-05  1.0422593999110127e-03  4.4679661920283701e-03  2.9808244592940122e-10  1.2707985464667029e-03  -3.2188588225897371e-05  6.0005105821275322e-10  6.1537621517150827e-04  7.0963094562834400e-10  -9.9996366794132850e-05  -4.6549862986486204e-05  5.3817665823943238e-04  6.6223404255578251e-04  5.0089285311828279e-04  -9.0241370636317229e-05  8.7631750727276919e-10  1.8869945988338355e-03  1.2802704133930364e-03  4.8221291303063857e-10  2.3904361697204036e-10  2.3556635523227553e-03  3.4791732248664464e-10  2.7320966074077887e-10  7.9192766696204722e-04  1.1482746464282260e-08  3.7676036560573483e-08  1.1457439505410671e-06  7.2299393652494639e-08  3.9836798012666141e-07  -9.7726369754169359e-05  -9.5702912993027940e-05  1.0229507494071990e-03  3.1305241802258872e-07  5.7745816062301431e-08  1.8191206788896132e-07  2.1078997242197063e-08  -9.9939850376839386e-05  -9.9996271773727135e-05  1.6117657942065931e-04  -9.9953297835146137e-05  2.3471594360229441e-09  -9.9995557233560490e-05  -9.9994606627375155e-05  7.0876106200141445e-05  7.6698039843775681e-08  6.0847546821908431e-10  5.4708336188013378e-10  -9.9960265794371659e-05  1.1808476244465414e-04  -9.9992287660595391e-05  -9.9825299802805208e-05  -9.9991973282660370e-05  1.9311722593653467e-05  2.8941288233859029e-10  -8.7780618021504473e-05  -6.5982269212318053e-05  -9.9844625808416361e-05  -9.9866816147099253e-05  -9.9699885122466419e-05  5.4224493212436272e-04  8.9323864790612979e-05  8.4352623401471204e-10  1.2052096167278119e-07  1.4877061537831712e-10  4.2681551890440759e-09  5.9097784269440895e-04  2.8897022786051241e-04  -9.9883532959146263e-05  1.3618053409023070e-05  4.0531524411001422e-10  1.2973561481985742e-05  9.2340296202890632e-10  9.1404434689417108e-04  2.6201567903798902e-03  4.8775832510217734e-10  5.2949274869366740e-04  1.0106457285040365e-03  1.0567536466348103e-05  3.5469819269738581e-10  -9.7759793708174323e-05  -9.7798711238336619e-05  1.1592196279537827e-03  4.8545997393544786e-05  -7.5654211952025054e-05  1.2784177696683690e-03  1.0663352315880344e-03  -9.8456350795854327e-05  1.8559718624622192e-10  1.0485604956496285e-09  1.4679846602141426e-03  -5.4721759218296372e-05  -7.1305928279025583e-05  -9.9654044947512229e-05  -9.8706553176966852e-05  4.5755167333379272e-10  -9.7826082140968894e-05  4.7055355628315266e-10  1.8344373135766742e-10  9.2927985645751415e-04  -9.9941812356204465e-05