<?xml version="1.0"?>
<VTKFile type="UnstructuredGrid"  version="0.1"  >
<UnstructuredGrid>
<Piece  NumberOfPoints="6486" NumberOfCells="12696">
<Points>
<DataArray  type="Float64"  NumberOfComponents="3"  format="ascii">0 2.5 0  0 0 0  2.5 0 0  2.5 2.5 0  1.25 0 0  2.5 1.25 0  1.25 2.5 0  0 1.25 0  1.25 1.25 0  0 0.625 0  0.625 0 0  0.625 2.5 0  0 1.875 0  2.5 0.625 0  1.875 0 0  2.5 1.875 0  1.875 2.5 0  1.770833333333333 0.7291666666666666 0  0.7291666666666666 1.770833333333333 0  0.9375 0.625 0  1.875 1.5625 0  0.642361111111111 1.163194444444444 0  1.341594827586207 1.883979885057471 0  0.46875 0.46875 0  2.03125 2.03125 0  0.3626104797979798 1.513178661616162 0  1.381740196078431 0.4564950980392157 0  0.9375 2.172619047619047 0  2.172619047619047 0.9375 0  2.096354166666667 0.4036458333333332 0  0.4036458333333333 2.096354166666667 0  1.684027777777778 1.163194444444444 0  0.3418803418803419 0.8693910256410255 0  1.642742622813391 2.162164207604464 0  1.275619849389031 0.8465650753054845 0  0.9136284722222221 1.434461805555556 0  1.732437511238546 0.3406962303960658 0  0.9714402568595876 1.029779313093998 0  1.52281746031746 1.485615079365079 0  2.1875 1.71875 0  1.06819722569879 0.2997236128493951 0  2.136114211309524 1.303478422619048 0  0.3125 0 0  0 0.3125 0  2.5 2.1875 0  2.1875 2.5 0  0.3200021620376328 1.192323085056694 0  0.6738456129277992 0.8304377375553881 0  1.757891808928991 1.861952730357003 0  1.5625 0 0  0.9375 0 0  0.3125 2.5 0  2.1875 0 0  2.5 0.9375 0  0 0.9375 0  0 1.5625 0  0.9375 2.5 0  2.5 0.3125 0  0 2.1875 0  1.5625 2.5 0  2.5 1.5625 0  0.7448220909826522 0.3003573636608841 0  1.027298850574712 1.871151477832512 0  1.331260495098891 2.197262878816185 0  1.207917681892289 1.582765010956622 0  0.4339993447432606 1.801186844743261 0  0.6337298768939392 1.443093039772727 0  2.049851190476191 0.6826636904761904 0  0.6584821428571428 2.219122023809524 0  1.89575676467455 0.9798457973793544 0  1.437570562095628 1.059380588255917 0  1.502090052505845 0.6987070896496241 0  0.2040860661083546 1.705323965099331 0  0.2083333333333333 0.46875 0  0.5070952039991439 0.2211150679997147 0  0.6916302856529919 0.5813591430410241 0  2.265625 1.953125 0  2.2265625 2.2265625 0  1.886424081252096 2.243391360417365 0  1.40625 0.202164758520858 0  0.2269345238095238 0.2269345238095238 0  1.152730869673694 0.5225850378741401 0  1.885631899587912 1.312095130148776 0  1.614808884009367 0.9049784971014416 0  1.890095442220658 0.5126535558463003 0  2.323168682795699 0.46875 0  2.268811725689575 0.2304742875213018 0  0.6002389442105756 1.967426444210576 0  0.1768313172043011 2.03125 0  0.2311882743104251 2.269525712478698 0  2.03125 0.176831317204301 0  2.280262553344767 0.6954945504579233 0  1.979219539285994 1.809922269642997 0  2.336309523809524 1.09375 0  1.09375 2.336309523809524 0  0.9314042474388009 1.662973812215543 0  0.1634067999087722 1.40625 0  2.337090640094896 1.40625 0  1.141616997467638 2.069311773587991 0  0.46875 2.338939559681489 0  1.542440307908715 1.734944797244472 0  1.556713687786879 1.956977865354753 0  0.8264238995344066 1.975424467820646 0  1.466326331454725 1.275271369760862 0  1.655675324257095 0.5444159974393489 0  0.3385416666666666 0.6479255698005697 0  0 0.78125 0  0.5236073939200119 0.984090461540625 0  2.091665741047893 1.519793517904215 0  1.71875 2.5 0  0.5356538886262603 1.623137930505009 0  0 1.09375 0  0.1932884281517095 1.015625 0  0.8569313582417669 1.2198915584249 0  0.8876981284879677 0.8329884081524883 0  1.115618488474214 0.7219586973356271 0  1.186950366204949 1.043465130075318 0  2.057459118787237 1.110823087309335 0  1.830651283878689 2.049810069572418 0  1.689107969301489 1.367247437031697 0  0.4921048768039656 1.298643370653124 0  0.8213975694444444 2.336309523809524 0  2.03125 2.5 0  1.049729400480002 1.283723261332814 0  1.308101375801673 0.6489479469700392 0  2.5 2.34375 0  0.4968777175037714 0.7562964879736076 0  1.40625 2.5 0  1.501347663534097 2.307027627307738 0  1.602813712048603 0.1926218191360736 0  0.8393082906308107 0.463778306132633 0  1.682663349152719 1.598471865581041 0  0.7774174680851571 1.560004941327907 0  1.554204170364662 0.3898593897892066 0  1.842184459051087 0.186443880058197 0  1.358107417651776 1.696381759610015 0  1.18859291992392 1.77598670078022 0  0.1875331222687418 0.7609599743339348 0  1.339536743965101 1.422080365801479 0  0.7788179348750389 0.9955343414928611 0  0.9062978492805438 0.1919636509126373 0  1.256007360640958 0.3160320559396114 0  1.09375 0 0  1.174986727221844 0.1594990293443933 0  2.34375 1.796875 0  2.318026474511116 1.589177949022232 0  2.34375 2.5 0  1.672742954892153 2.332882724550692 0  0.2683637361947215 1.874801596909639 0  2.174770749820102 0.5581009131310781 0  1.443279522965991 0.8870068372898454 0  0.3385416666666667 0.3571428571428572 0  0.78125 0 0  2.060421048269335 2.314363248763811 0  1.088078737088509 0.8967352118723447 0  1.087825368444708 1.454931510884769 0  2.018308232129541 0.8548495425854904 0  1.943987311736842 0.3246298523011434 0  1.71875 0 0  1.85337849796276 1.144833312386208 0  2.3486328125 2.1044921875 0  1.407588788651747 2.042968789119587 0  2.336309523809524 0.865366648092144 0  2.34375 0 0  2.5 0.15625 0  0.15625 2.5 0  0 2.34375 0  0.1638044648294291 1.242263417405867 0  0.356216654757926 1.032569427322806 0  0.3188217956111817 1.355736727000647 0  0.5924956460852111 0.36112522004736 0  0.6594216488965849 0.1603472116132387 0  1.841804599497131 1.72214349266521 0  0.15625 0 0  0 0.15625 0  2.115898634821499 1.894570904464496 0  0.7821877980253907 0.7129993435924866 0  1.003820447087786 0.4516053462784233 0  0.477562948779147 1.138333049293613 0  0.719493678605015 1.305655360135975 0  0.9772457618587566 2.020350128938537 0  0.8764738248887107 1.826219722709673 0  1.254787875123819 2.339010653832026 0  2.343597354852534 1.249982759769001 0  0.78125 2.5 0  0.46875 2.5 0  2.5 1.40625 0  1.09375 2.5 0  2.5 0.78125 0  2.5 1.09375 0  2.03125 0 0  2.5 0.46875 0  1.40625 0 0  0.46875 0 0  0 0.46875 0  0 1.40625 0  0 1.71875 0  0 2.03125 0  2.5 1.71875 0  2.5 2.03125 0  2.005424054645407 1.653223486966518 0  0.1538730573856537 1.559850281736677 0  2.33984375 2.33984375 0  1.166539506212474 1.922878979538754 0  0.3914885633949916 1.65887232812171 0  0.5795503163042564 1.766243562569382 0  0.399533125920212 1.946786875081388 0  0.7866324979014098 2.127719094551316 0  0.3654683023546834 0.1495701132219454 0  0.1527388747131078 0.6116379440619215 0  2.013737577140188 1.391056634712135 0  1.17635437372994 2.213329084238133 0  1.737118141866284 1.010577140843115 0  2.200707118087222 1.164723314085963 0  1.697018908736685 1.993548551451517 0  0.5387621649009668 0.6070503962352419 0  2.032805785855952 0.5330427622570983 0  1.082699501358059 1.667818725183932 0  1.503819781540653 0.5468420196858188 0  2.015409142866072 2.175941657590429 0  1.752057611265444 0.869642097111018 0  0.612251684107783 2.356045720700959 0  1.902817102342857 0.6607642211999982 0  2.159616561739693 0.7867739969338844 0  0.5120038350106624 2.197302352398502 0  1.888200216011548 1.919501662489862 0  1.495909909726654 2.16028358757309 0  0.489139876703609 1.443203008943564 0  0.8819175670410521 0.3301172743913011 0  1.882591144370812 0.8155965192707721 0  1.133979796994841 1.172526771862882 0  2.206217447916667 2.084147135416667 0  2.20361328125 2.36279296875 0  1.395746985657004 1.556054166359645 0  1.704383111516207 1.734750450338683 0  0.9575737847222222 2.36274223823052 0  1.035150984253136 0.1302833343179028 0  1.383966125325753 0.7651479963479179 0  1.64003252158672 0.6824316405528895 0  2.22550785055421 1.487078576356817 0  1.760964431499756 1.48495222505201 0  1.276460980673788 2.004207003584658 0  0.1341477688427096 1.828777507920502 0  1.542261434180652 1.155296658359034 0  1.334627911613854 0.9696897472490321 0  1.30794231473696 1.119420615785191 0  0.7028260459857245 0.4438906910721139 0  1.625757433094055 1.84268057552138 0  0.9818707849053143 1.165603626132254 0  2.0086489901463 1.243134585689553 0  1.934584460420609 2.374094051915812 0  1.798434376789567 2.38671361912528 0  1.206314791201715 1.382064292497919 0  0.6333752893366955 0.7023738550008095 0  0.7796219811205605 1.42573253164258 0  1.564399711917382 1.026040828857629 0  0.3385416666666666 0.4889012896825397 0  0.1041666666666667 0.390625 0  0.989112246382566 1.543537365516289 0  2.025724425454636 0.9846960595520872 0  0.6602885475034063 2.086117390485779 0  1.607130551925032 1.267198646640915 0  0.1317864544877056 0.8896173683400176 0  1.755387840017567 2.230364320056445 0  1.301540702984401 0.1216289692748247 0  1.433170657577442 0.3331052752740999 0  1.500459610550388 0.113513924782439 0  0.6494291520606965 1.029586599619295 0  1.010146149868299 0.794897284196169 0  0.3700844198238017 2.235390157870766 0  0.3360891767780704 2.36656279435396 0  1.876856241037701 1.437150669863757 0  1.778674102957329 1.245979347269706 0  0.5472829890977179 0.1005517127039925 0  0.4669074189005698 0.3416784232954367 0  1.472765289289269 1.850899166481903 0  1.555853593327178 1.608452097912802 0  0.6708955559113426 1.646561631116984 0  0.8164699620322933 0.5924479455478063 0  0.3167738989468366 1.758696809749795 0  0.2788007305565096 1.605499483471246 0  0.7821720982350511 0.181524936294752 0  1.376812251214195 2.313340247908297 0  1.785652202614777 0.5962261755537186 0  1.761467296310972 0.4679567244718574 0  2.2265625 1.8359375 0  2.3828125 1.9140625 0  0.5279531607054191 2.071552361614785 0  2.397573269551114 0.234375 0  2.383578172599618 0.3589298466020009 0  0.1024267304488855 2.265625 0  0.1164218274003825 2.141070153397999 0  0.2696857594953064 2.135405441512016 0  2.164961300137334 0.1375322943529536 0  2.137757548369486 0.2724194778647587 0  2.238873711826398 0.3626419179496562 0  0.1001414910226386 0.234375 0  0.2176339285714286 0.3478422619047619 0  0.2503620791333544 0.1061694061057066 0  2.336445461915368 0.1250451055247424 0  0.2154004640409726 2.3918124
[...]
<PointData  Scalars="f_49-3"> 
<DataArray  type="Float64"  Name="f_49-3"  format="ascii">-2.6887673919382931e-24  3.7647776049052371e-10  1.5930209810138168e-38  5.8065761386634115e-36  1.5168479278764550e-19  5.3246566796601647e-36  1.4784958849438853e-24  -5.7657775048411108e-07  7.9701566725547185e-10  -1.0105147001258834e-04  2.2663559638969990e-13  -1.2815200395380240e-24  1.3300979361222881e-14  5.2958888741108998e-41  9.1734077641227643e-29  1.5122888665878344e-34  7.1662007317873077e-28  2.5601950972189986e-24  8.3390638985363714e-12  1.2805317602926171e-10  2.6388544348238086e-20  1.0328951306845647e-04  5.4237493397086586e-15  3.9091066395891279e-08  4.8421268283285609e-25  4.0943909550773828e-10  -2.0187447799380394e-20  1.5837164971022344e-18  -1.5064044800703911e-31  -7.1401510302732745e-33  2.2137351383532997e-24  3.8800409891643077e-18  1.3799746233265930e-03  5.1697400539045169e-21  -9.8479935202218360e-13  1.3253970699851858e-07  -1.7048123469660275e-26  1.8972138667657867e-06  3.2352915690262021e-14  4.1307593377121296e-27  -2.6512770446697213e-17  -5.5708252654628887e-29  6.9591319367255533e-11  6.4862815195179141e-07  3.6083274562312461e-34  7.7686073796930752e-32  1.4942440410021066e-06  2.5589315787681317e-04  5.7106618481007744e-20  -5.2757386474407900e-24  -9.9400665583648973e-16  -2.2241553794878290e-25  -3.1508317078818379e-34  1.4585288966433529e-38  -3.9606894935999913e-05  2.4429158253312472e-10  -9.8725474241391897e-26  -5.9045032333121057e-40  -1.4052182139686702e-19  1.5546396264711913e-25  -5.1171988640467537e-36  -1.4544386304339078e-12  3.0719186189709736e-13  1.7939872203860457e-19  5.2263912827447681e-11  2.7810319585353042e-13  3.2753751267267403e-07  1.4931120643119134e-31  -9.3393250509955439e-21  -1.2012145418423128e-24  2.4849274938034626e-13  -5.2592516803095529e-19  5.9889488997687174e-12  1.5470229793450091e-04  6.6102390890157630e-12  1.9721910037708804e-07  6.3425287137320299e-29  1.3178977749532421e-29  4.6933172276867400e-25  2.9012769458781928e-21  6.0645242254630753e-10  -7.5572310623387432e-16  1.0566167246425347e-21  8.0235890384904528e-20  2.3793989953116681e-28  8.0555431357209983e-38  -7.3026115005005363e-36  7.7738262393173703e-16  -6.0802305507828052e-18  -2.7064758845624438e-21  1.2717055385119604e-31  1.1478951494573934e-35  4.7966517616563730e-23  1.3522434499205044e-33  1.0565989269461418e-21  3.0767881245055052e-10  -4.5130628528917322e-09  -1.5051411567305850e-32  1.3361902231953771e-16  -4.8648044102126449e-22  6.8920016089713503e-16  5.1887491090971266e-18  3.6504808259648131e-15  5.3059066734394790e-13  7.1958609882147326e-24  2.3161075287882848e-03  -8.8999029302075516e-05  9.5954577649166536e-04  -2.3454726403401067e-25  2.1151549530628915e-26  1.7044722520839012e-10  -7.4848668500231841e-06  -2.2977677173722272e-05  6.7355952768533380e-06  2.0109874249832071e-06  -2.8083076694605106e-11  2.7978061925161619e-09  -3.3512628088521243e-28  1.9240978172372454e-22  4.5791287920368079e-17  4.2980981908690473e-06  1.2841472399343151e-23  1.3833250357692464e-29  5.8077219306251934e-08  -1.4021360912432109e-16  5.9750944285120492e-35  1.3804625469720415e-03  1.1216417620519482e-24  4.9222071764272390e-22  -1.6059648236386770e-24  8.4869035164076223e-12  3.9263117621719095e-17  1.1744937155355299e-08  8.2845221842448294e-23  9.3581101859501859e-30  2.5575832843202679e-13  1.1434595470393433e-12  5.9675495531942688e-04  1.5403327224705669e-11  1.0358005964616497e-04  -2.6457797537956052e-15  1.5769899662463401e-20  -1.1099825763603863e-17  -1.7480803211733165e-18  1.5235586797868333e-30  -1.4661589565702290e-30  4.9646436227298423e-34  1.2320983564761357e-23  2.2223072247785610e-14  -6.9098831068353677e-34  -4.8001933739573919e-16  3.7946506230651191e-08  -2.7707307067507244e-14  2.6485691159211337e-28  8.3105918693938158e-09  5.2121701453790195e-09  -3.7392447707645521e-29  -1.0592213482128452e-29  -7.0441527672744792e-27  -1.4336446380308530e-22  4.1967431281006217e-31  1.0653726567934853e-17  -1.4493363306092206e-35  7.9944973453288987e-37  5.3750026308513636e-39  -6.0062490873035897e-25  -3.7339685695660915e-22  -5.3826001226211434e-07  1.5271097454187842e-04  -2.4882383903211869e-08  1.1490879893104361e-10  -1.0306019881088059e-13  2.5987194899639199e-20  2.4321624148012236e-10  1.0665611115027998e-08  5.5750616040391895e-26  1.8303251604854999e-06  9.8550478655172051e-14  1.2554433160543989e-04  6.8459047291832984e-06  1.5738274004229200e-15  2.4260780806297551e-12  1.8208780851136959e-21  2.1192817691336978e-33  -4.1076537943512547e-25  -2.7858843821304671e-25  7.2966194070167602e-37  3.5116498101904684e-25  -1.5600591389342586e-39  -1.7186871330986765e-37  1.3891744441743754e-31  -2.8717735016303226e-40  -2.5922467885642285e-23  9.9477215302286143e-12  -2.5281603743949302e-05  -9.5246730016689073e-09  3.5098064941310905e-12  2.4262839883234894e-17  -2.3911100352274214e-34  1.0490020193552085e-33  3.5128093184759953e-23  2.5426286431981512e-10  3.7245945090854157e-32  1.5487311715054742e-14  2.4553135019517923e-11  9.7835171059484487e-13  8.8540569408785149e-16  1.0303771955660912e-18  3.7556839248790042e-11  3.0619658742396137e-03  -1.5661556993585587e-24  6.0952878177947567e-19  2.8184178362379613e-21  5.6182838571014410e-31  4.2751047279451529e-20  4.7328879629594822e-05  -2.3638637042859146e-31  7.8437660231791888e-11  -1.0673967374616575e-20  4.1630866650826659e-26  -3.6975648771342140e-22  -1.5159760604091574e-22  4.6622564287135872e-28  -7.1392186673243394e-32  -4.9728919906809292e-20  2.7984741385587547e-22  6.7931630098414502e-20  7.1769001661117066e-08  -4.0307955275583107e-14  -1.6456440150874480e-25  2.6320106759078496e-08  1.9706186677801868e-28  7.0452351719173627e-31  4.8599911771492901e-13  2.7662103432353040e-18  5.5184920510106539e-23  -1.2691578659246431e-16  -1.4456580663642526e-15  5.8393361891205145e-22  -7.8813365811166370e-29  3.7501431844201277e-18  3.6987653265355773e-16  1.6692706505202233e-13  1.8259349620268376e-15  7.3747268825797605e-13  7.0065088317080357e-11  4.0140845888577989e-10  8.6679807188276623e-18  1.0850392332324236e-06  3.0956818538334775e-25  7.0034727047075771e-27  1.4183502874832360e-25  8.9749032475433529e-10  7.6371390380179088e-05  4.4370733508263433e-07  -3.4161966041465957e-17  2.0227673153841701e-05  -4.2494684957488152e-05  4.7721206570359529e-09  -1.5095324837548991e-27  2.8618690280921394e-18  1.1719994233244677e-15  -6.1767301617449068e-05  5.5928893235796106e-23  3.7123125732248519e-20  3.3992881699986651e-21  -2.3153697993674947e-23  3.6406173692171950e-04  5.3557298841053209e-09  -2.0038239344787005e-20  -1.5247765420194070e-23  7.8123295893223814e-21  6.5900186134094218e-21  1.2010991176302478e-12  2.8824161002280493e-12  4.5565011208271920e-16  1.5422228556090861e-15  3.5668802471179443e-10  6.5591735257940699e-09  1.1216528391198202e-12  1.0495550853733217e-10  -3.1510838987131233e-14  1.0038398210601524e-21  -4.4116793458231714e-26  7.5923666195411911e-26  1.2281898979556232e-27  4.1419953951894286e-31  5.4173989542971192e-18  -1.6446574039299851e-38  -5.7611859309236377e-38  -1.0619134475193545e-20  -6.4605615428915540e-19  -3.1013056599865204e-19  8.8811658906199595e-37  6.1353761297477107e-34  1.9250484851706523e-36  -3.7337164098494432e-08  1.1597817317268898e-06  1.4377158952927065e-10  2.5588961480230294e-37  -6.6216999143524359e-23  3.7341915584753140e-19  1.8065079462036266e-10  -5.9048606872475444e-26  2.0322560603518093e-13  1.0573876442730261e-17  8.8715910913443304e-17  2.6156781124318693e-16  4.5497749471019036e-16  5.3048595817973597e-05  4.1278299006930866e-16  7.2425818287179713e-30  7.1854554287243996e-38  2.3328080234812721e-37  2.8784550838276408e-32  -1.3361507953486077e-08  1.6280706326715586e-14  1.3165535146801109e-14  -1.7533241100531355e-18  -5.4075096734107144e-27  3.8374900794194217e-14  -2.3496504556021295e-28  2.0160453448296711e-03  2.8324182897234429e-10  9.6074265228061357e-12  -4.7573765344884131e-34  -9.7885511814879769e-15  1.4582365803895573e-31  5.1826167259744411e-18  -3.8673889462050454e-06  -2.0981858407481072e-35  -6.5009121651718999e-05  1.7169776903824853e-05  1.7869802907193011e-24  7.2441791627191130e-24  -2.9504555278257159e-30  4.7712081604766622e-23  4.7596974923275171e-10  -8.6656927970607490e-08  -5.5169624182184322e-34  -7.2591425617765277e-31  1.8204309249230584e-05  -6.8062067594942108e-25  -2.4133366205928978e-21  3.3445028616909028e-24  -2.1955601279485452e-28  -1.6160835165521116e-32  1.5148846095721219e-19  1.1722298562975951e-12  -1.8725950446901730e-23  7.7530178076033681e-07  2.8680039315574063e-03  1.8789588111537596e-04  2.3626642821753334e-03  3.3677837224554671e-24  4.2800263356316036e-11  -2.1355831295338718e-06  8.1900765667680942e-35  5.1291894687911783e-35  4.1487524883234756e-23  -4.3988142711726706e-23  3.2639974199657747e-34  1.8602188456264483e-22  2.7327479885060517e-27  1.9285929276544872e-18  7.8166782638082422e-30  1.1486576383856502e-22  1.4654645168133166e-21  1.1819184629765920e-16  5.9202754565237379e-14  3.3646675309118695e-11  6.2100299703768544e-10  3.6374895384244718e-10  1.3206753131496485e-27  2.3400703735728939e-14  2.0906468771460417e-07  4.2906767252987463e-10  3.7031877251863883e-24  7.2588738243468660e-04  6.5283220075321618e-08  2.1581094012643745e-05  5.4917060776067494e-07  -7.0564025024353507e-28  1.9330630782297156e-06  4.1355760510769942e-12  5.5251492766318192e-10  9.3064586261204898e-15  2.5772966893268015e-17  -3.7232937118445638e-34  1.6623780824279084e-08  1.1537938057599624e-18  4.7828347623751848e-13  1.3129745987642489e-20  9.5109355523992015e-05  1.3542005784960474e-05  2.5857368029498149e-27  6.2856102353472617e-13  4.8245021151226034e-25  2.6495953686035654e-30  7.3932010252579904e-08  3.5432458958760175e-03  -2.6666938842112388e-05  -7.6441923780680374e-26  -7.8636540826280220e-30  1.3097556357069087e-11  -5.3157465426766236e-29  1.1683401381394635e-23  6.2219166049942743e-09  1.2184299500285617e-03  1.5419264370297500e-37  4.2498307224367204e-14  2.8181890802859734e-14  -1.9998855518729467e-11  1.1834999421206450e-37  5.1073016275781317e-12  8.1920687557283306e-10  1.6614582242276858e-19  7.7791861280955793e-04  3.4230538663426545e-04  -6.3489998340790977e-25  6.9547509369229206e-09  2.0381464888530321e-16  2.0693092877261551e-21  1.7485587612833797e-21  1.6041704792214741e-06  7.9834455023540502e-06  5.4044234827015429e-14  9.1043496617968741e-19  7.1419644825882039e-21  2.4702693629885330e-23  -5.9400732566923408e-14  3.1285283381618923e-10  -1.3070092439252668e-24  -4.8745430883608995e-22  3.9558988613169385e-32  7.1626116669216041e-20  1.5351030830928725e-16  9.9863666846565004e-22  1.7791347425741523e-18  -5.6538974488090286e-14  -5.2222956059384994e-36  3.3253657746655161e-12  1.0470243686705437e-07  -2.1154987951378777e-27  1.6757647244044285e-32  2.5396077945128776e-04  9.4464170426947372e-17  -3.6279376913908135e-18  -6.9131553013843747e-16  -1.3866330359094322e-35  9.6787281964953069e-12  -8.8079522119336588e-06  1.5885180262212631e-20  4.2239042047800492e-31  -1.4075469546260102e-34  2.1417167740625424e-26  -1.5461178131175252e-10  2.4573823172305232e-03  7.4002536897886686e-09  -9.1181119000495649e-05  9.5871977115182367e-15  5.1801412528026437e-22  -2.6495385313909070e-07  -3.4445808242440444e-33  3.5439555584353396e-32  1.6007848261824896e-07  4.6530888102271264e-21  1.1060590596231670e-03  -2.0978975819921891e-22  3.4806111270456862e-03  2.7050857464799621e-30  9.0683596063251518e-12  3.1047861486111452e-11  -4.9300662758903633e-19  1.8209761156247978e-20  2.9923243394473511e-20  1.3280195626411677e-13  4.2989457592717979e-14  3.5085145132164694e-12  1.0314824933408718e-11  -1.7348096048970309e-25  1.2292366852089191e-26  3.0307431142135176e-29  -2.4867681551394038e-21  6.4855971892431350e-05  6.4267489592977042e-26  4.9714915998981896e-09  -2.4889098118178863e-17  3.2463080350696729e-05  6.6701233207811173e-21  5.7983250072948626e-08  9.4641664324356414e-22  4.2634206044038451e-25  -5.3941364526395753e-17  -4.8879512016022595e-39  -4.5466277709687708e-32  8.4279901247726758e-23  1.2146656058978340e-23  7.8364934879032833e-15  1.1457606470107679e-26  2.5831889306057103e-30  4.5576067647581730e-17  2.5984252329682464e-09  2.2557461688199160e-11  -5.2944566630869271e-41  -6.1299269387395066e-40  2.9420080424575431e-23  -1.1293975849633162e-15  6.8499012161554346e-14  4.3424092885462803e-13  -3.9442813632135295e-23  2.3407170357295951e-28  1.5855518569620177e-15  3.6817219056163844e-18  -1.2873646794461870e-12  4.8263287101678337e-04  2.8688580815273199e-25  2.5911649722051785e-13  2.1035316663888508e-16  -9.1317555261329237e-24  -3.5529459177389088e-23  -1.2478777522665607e-17  -3.7268111988035190e-14  9.7355887995915529e-11  9.2544483633113682e-36  2.6245173333550269e-20  1.4174734579857868e-13  -1.8668270153657724e-20  1.3874508821914090e-23  6.0404387897319592e-21  4.0702356751976398e-18  9.6967597495132511e-26  -1.8091160032794357e-32  -4.6199493742394040e-20  -8.0648182888174465e-40  1.8294075899821403e-29  -3.3511254500585788e-30  -1.6908815887245103e-26  1.1413291213149833e-32  2.4614820223610191e-29  -1.2810329498824508e-32  1.2153155490095462e-38  5.0752697172742964e-18  1.4218072035848127e-33  6.0713124647555789e-06  6.2634899872799347e-05  1.5793158288080726e-20  2.6871594709272606e-22  3.4663107346385559e-25  6.3941410394433609e-18  1.3792113530436620e-32  8.0802011819294798e-30  -5.1194302136040290e-14  -3.5444935733155085e-15  -9.9639643166497246e-37  -7.5179902947411171e-20  3.8682513892822046e-11  1.0373270148814745e-13  2.6813429401602790e-22  6.4808486902290581e-21  -1.9262826364677703e-35  -1.0186147901801297e-08  2.4854976936939666e-06  6.0271844193883435e-09  2.1631591411035747e-13  5.3426757217217819e-38  2.9088515732357416e-18  -6.2607112191942767e-05  -1.4118896800411593e-38  -9.4359831331357583e-22  3.7700788551717375e-23  3.5844542181548617e-24  5.9978560890907907e-19  1.6245841681481787e-33  2.0647045478355693e-14  1.9592843904211158e-24  3.3237723834916838e-32  6.3218190761446058e-04  5.4083753846833930e-10  1.0733356717436556e-12  -8.5682303148677631e-32  -3.1834574221780851e-38  1.1874625490843430e-11  4.4809257275370882e-19  1.5788202476478300e-13  -1.0534908505964758e-20  -6.8591105467127091e-35  2.1335272413132737e-10  4.7618901523347298e-05  2.6007244669013192e-06  3.3477059278747608e-17  2.4710226037532562e-07  8.7852905815075240e-11  9.8987703674428834e-15  -6.9095736470820331e-30  -3.7550740700245379e-25  -1.5926037596546287e-10  -2.9714162640879365e-08  6.2774429437910164e-11  4.8120936482153915e-14  -5.9540068595889260e-13  7.1388727495860509e-09  2.0320031713125081e-11  -1.1905947725624536e-35  1.5328843739030408e-37  9.5600805783564081e-11  1.8266585412961408e-08  4.9446673765433961e-12  -1.1790848601958503e-10  -2.7915972572450574e-07  1.1099739186650473e-19  1.6064144724355595e-32  -2.0239223733592173e-16  2.1164978215528940e-27  5.7169686362732616e-36  9.6599235824520622e-30  3.5766359601062235e-16  1.7159926835078935e-27  6.8688839980914834e-10  1.4616305475977216e-24  -2.0030503642528753e-17  1.7816936037219349e-20  1.1062677373568138e-21  2.9403645297756742e-10  5.3263150678335873e-10  1.3401001816470401e-25  9.1843230466645574e-21  5.1777948843867658e-31  7.1590977495287665e-10  -6.6908003017962663e-19  -4.1447329572898972e-39  3.6395080232816372e-06  4.0546490421392035e-05  -2.3104024550686652e-21  4.1482162492021577e-24  1.9304652626698320e-09  8.6406339632894157e-16  2.9868520594734216e-28  6.9983402208950863e-11  -4.9608020807844733e-35  -1.3705615836009233e-31  -4.1287134084066737e-16  -3.2931805099706665e-30  7.4217104170396203e-04  9.8748411837431676e-12  7.2195472852606142e-19  5.2202137093090489e-17  6.5556037449994599e-13  1.8088000992602315e-24  -3.6942912168362178e-26  2.7054483845091417e-15  4.4823422724228103e-07  1.4813823290861632e-14  3.4539925120253873e-23  2.7105827861788932e-34  1.2533743971245538e-34  -7.5591099676592372e-19  -5.6899076605504246e-07  2.0313614287031539e-23  -6.6334380131431286e-33  1.3756491832612741e-19  3.9943852284567700e-33  -1.7992177745522991e-25  1.8126749584524287e-30  -3.3581616707376801e-23  -1.6488168466944369e-24  8.4188298164875470e-25  4.3268914495638929e-11  -7.1127266271516097e-25  -2.9367907848876009e-34  7.6718067710947110e-28  -2.9513419813783237e-25  2.9513947001602436e-38  3.9203576670607848e-36  -2.0236298406336138e-36  -1.8961320490460427e-05  -2.2375599324937307e-06  -9.5519936994034778e-08  6.3637806856653072e-25  -9.8819283189272207e-05  -5.8628567934752381e-15  6.5860344138904181e-30  8.0296021201488831e-16  -5.4213695566724992e-25  1.5995723213319920e-10  -7.9370145524073764e-21  8.4871710103019896e-40  2.7626400706687257e-12  -3.8139742891416383e-23  -1.2761718395691641e-08  4.1392659670615821e-06  3.4672793879839468e-27  1.3545405120206894e-34  3.8284126564974983e-35  3.8908951184275213e-35  4.9564412728877601e-10  2.7638459412234059e-25  -4.7042125343112843e-05  -1.5883665670826596e-34  9.1633056464560022e-34  -5.9937086780619224e-40  -4.7893771394081877e-27  4.6646456972630259e-19  6.0311543646105182e-10  -3.8597317274162205e-24  -1.5247963466818718e-19  5.4555309947335951e-23  -3.6990957332384218e-07  4.0991872824530803e-04  5.4133937257180854e-06  1.3635431154562803e-28  1.5042065774206160e-11  6.3224707809006613e-05  3.7774713187141456e-04  6.0256958232516377e-17  1.0110276719811056e-05  -3.7255495557875207e-14  5.4737764945662976e-17  9.1349601114011359e-10  2.7949509101997337e-10  6.5345375832191761e-11  -6.7350149393619971e-08  1.0427165045668457e-03  4.4678053007571371e-03  8.2334865727017134e-32  2.1221982428167697e-17  2.3518821549496621e-14  -1.3894750475074542e-29  3.9341272533738260e-04  -1.3850368073816016e-34  4.4453009225715990e-10  4.3088509291530986e-16  1.9733647396886912e-07  5.8030017860353307e-04  1.7782804441919592e-12  2.9975236688538853e-15  -6.8973578798963125e-21  1.2721144732715669e-04  6.5590710410949963e-06  -3.1416819419380138e-29  -6.4030790261301873e-33  1.3882154227442675e-03  6.3273597907192782e-31  2.1643508455367503e-35  1.0499531460557078e-07  -1.5039373752412579e-19  -1.0676328768323646e-08  -1.5448554129556209e-18  5.2931410476971258e-08  -3.7338136732865514e-29  4.0593609561975375e-11  9.0822796502930725e-12  5.4030093592425978e-20  -3.6924215936137989e-22  -2.0188450618699477e-24  -5.6925295093175492e-25  3.0043726198846142e-26  3.1710783112672888e-19  -5.5347894812725949e-09  1.0636609368693520e-16  4.7287458890937410e-13  -9.7010243045604246e-15  2.5424902611468019e-14  6.4550149750725435e-15  1.5135935287366880e-22  8.7022316547309481e-17  5.9597004938077953e-26  -1.0143352907378900e-27  6.1030421793576958e-18  1.6541190630350933e-15  1.1654985630901717e-10  5.8649890919055382e-11  3.2612319813116552e-12  1.0450374876256937e-08  1.3509170883444102e-34  5.9298153374718018e-20  3.8706081307713750e-20  -2.6077530542707997e-20  -8.9833352078212785e-20  -8.6286705639228472e-21  6.7495100363239551e-23  6.3972319935616688e-15  1.2841968242548435e-21  -8.5757510311384644e-29  1.3719205896503991e-37  6.5701886104962373e-29  3.0724185955925954e-11  4.7251390791245176e-07  -1.0943714588418136e-06  1.5269481357973976e-15  4.5025280994937656e-31  2.0511142035069387e-06  2.4671793842153279e-20  3.5503651405081873e-24  2.4241384271206363e-03  -2.7161511255685314e-29  1.0246875873957796e-25  1.6915415606164745e-25  8.2748377043688701e-32  -1.4145770678001248e-33  -7.4310114796324259e-24  1.4268770174440759e-08  5.1578832032155391e-13  1.0406021976297418e-11  1.3453326238008952e-06  3.2222651613410205e-19  2.0328558357724065e-21  1.8005426438500114e-13  -2.9956127674499779e-37  2.3172710534530685e-16  7.6185386358388237e-11  1.7302270957789747e-07  4.6572362000479089e-07  -2.4794148789455957e-21  -1.2538181119151509e-23  5.8884558115826545e-30  -1.2385727355217576e-24  -6.5785388199203385e-29  6.4789970286915504e-37  2.07337