<?xml version="1.0"?>
<VTKFile type="UnstructuredGrid"  version="0.1"  >
<UnstructuredGrid>
<Piece  NumberOfPoints="6486" NumberOfCells="12696">
<Points>
<DataArray  type="Float64"  NumberOfComponents="3"  format="ascii">0 2.5 0  0 0 0  2.5 0 0  2.5 2.5 0  1.25 0 0  2.5 1.25 0  1.25 2.5 0  0 1.25 0  1.25 1.25 0  0 0.625 0  0.625 0 0  0.625 2.5 0  0 1.875 0  2.5 0.625 0  1.875 0 0  2.5 1.875 0  1.875 2.5 0  1.770833333333333 0.7291666666666666 0  0.7291666666666666 1.770833333333333 0  0.9375 0.625 0  1.875 1.5625 0  0.642361111111111 1.163194444444444 0  1.341594827586207 1.883979885057471 0  0.46875 0.46875 0  2.03125 2.03125 0  0.3626104797979798 1.513178661616162 0  1.381740196078431 0.4564950980392157 0  0.9375 2.172619047619047 0  2.172619047619047 0.9375 0  2.096354166666667 0.4036458333333332 0  0.4036458333333333 2.096354166666667 0  1.684027777777778 1.163194444444444 0  0.3418803418803419 0.8693910256410255 0  1.642742622813391 2.162164207604464 0  1.275619849389031 0.8465650753054845 0  0.9136284722222221 1.434461805555556 0  1.732437511238546 0.3406962303960658 0  0.9714402568595876 1.029779313093998 0  1.52281746031746 1.485615079365079 0  2.1875 1.71875 0  1.06819722569879 0.2997236128493951 0  2.136114211309524 1.303478422619048 0  0.3125 0 0  0 0.3125 0  2.5 2.1875 0  2.1875 2.5 0  0.3200021620376328 1.192323085056694 0  0.6738456129277992 0.8304377375553881 0  1.757891808928991 1.861952730357003 0  1.5625 0 0  0.9375 0 0  0.3125 2.5 0  2.1875 0 0  2.5 0.9375 0  0 0.9375 0  0 1.5625 0  0.9375 2.5 0  2.5 0.3125 0  0 2.1875 0  1.5625 2.5 0  2.5 1.5625 0  0.7448220909826522 0.3003573636608841 0  1.027298850574712 1.871151477832512 0  1.331260495098891 2.197262878816185 0  1.207917681892289 1.582765010956622 0  0.4339993447432606 1.801186844743261 0  0.6337298768939392 1.443093039772727 0  2.049851190476191 0.6826636904761904 0  0.6584821428571428 2.219122023809524 0  1.89575676467455 0.9798457973793544 0  1.437570562095628 1.059380588255917 0  1.502090052505845 0.6987070896496241 0  0.2040860661083546 1.705323965099331 0  0.2083333333333333 0.46875 0  0.5070952039991439 0.2211150679997147 0  0.6916302856529919 0.5813591430410241 0  2.265625 1.953125 0  2.2265625 2.2265625 0  1.886424081252096 2.243391360417365 0  1.40625 0.202164758520858 0  0.2269345238095238 0.2269345238095238 0  1.152730869673694 0.5225850378741401 0  1.885631899587912 1.312095130148776 0  1.614808884009367 0.9049784971014416 0  1.890095442220658 0.5126535558463003 0  2.323168682795699 0.46875 0  2.268811725689575 0.2304742875213018 0  0.6002389442105756 1.967426444210576 0  0.1768313172043011 2.03125 0  0.2311882743104251 2.269525712478698 0  2.03125 0.176831317204301 0  2.280262553344767 0.6954945504579233 0  1.979219539285994 1.809922269642997 0  2.336309523809524 1.09375 0  1.09375 2.336309523809524 0  0.9314042474388009 1.662973812215543 0  0.1634067999087722 1.40625 0  2.337090640094896 1.40625 0  1.141616997467638 2.069311773587991 0  0.46875 2.338939559681489 0  1.542440307908715 1.734944797244472 0  1.556713687786879 1.956977865354753 0  0.8264238995344066 1.975424467820646 0  1.466326331454725 1.275271369760862 0  1.655675324257095 0.5444159974393489 0  0.3385416666666666 0.6479255698005697 0  0 0.78125 0  0.5236073939200119 0.984090461540625 0  2.091665741047893 1.519793517904215 0  1.71875 2.5 0  0.5356538886262603 1.623137930505009 0  0 1.09375 0  0.1932884281517095 1.015625 0  0.8569313582417669 1.2198915584249 0  0.8876981284879677 0.8329884081524883 0  1.115618488474214 0.7219586973356271 0  1.186950366204949 1.043465130075318 0  2.057459118787237 1.110823087309335 0  1.830651283878689 2.049810069572418 0  1.689107969301489 1.367247437031697 0  0.4921048768039656 1.298643370653124 0  0.8213975694444444 2.336309523809524 0  2.03125 2.5 0  1.049729400480002 1.283723261332814 0  1.308101375801673 0.6489479469700392 0  2.5 2.34375 0  0.4968777175037714 0.7562964879736076 0  1.40625 2.5 0  1.501347663534097 2.307027627307738 0  1.602813712048603 0.1926218191360736 0  0.8393082906308107 0.463778306132633 0  1.682663349152719 1.598471865581041 0  0.7774174680851571 1.560004941327907 0  1.554204170364662 0.3898593897892066 0  1.842184459051087 0.186443880058197 0  1.358107417651776 1.696381759610015 0  1.18859291992392 1.77598670078022 0  0.1875331222687418 0.7609599743339348 0  1.339536743965101 1.422080365801479 0  0.7788179348750389 0.9955343414928611 0  0.9062978492805438 0.1919636509126373 0  1.256007360640958 0.3160320559396114 0  1.09375 0 0  1.174986727221844 0.1594990293443933 0  2.34375 1.796875 0  2.318026474511116 1.589177949022232 0  2.34375 2.5 0  1.672742954892153 2.332882724550692 0  0.2683637361947215 1.874801596909639 0  2.174770749820102 0.5581009131310781 0  1.443279522965991 0.8870068372898454 0  0.3385416666666667 0.3571428571428572 0  0.78125 0 0  2.060421048269335 2.314363248763811 0  1.088078737088509 0.8967352118723447 0  1.087825368444708 1.454931510884769 0  2.018308232129541 0.8548495425854904 0  1.943987311736842 0.3246298523011434 0  1.71875 0 0  1.85337849796276 1.144833312386208 0  2.3486328125 2.1044921875 0  1.407588788651747 2.042968789119587 0  2.336309523809524 0.865366648092144 0  2.34375 0 0  2.5 0.15625 0  0.15625 2.5 0  0 2.34375 0  0.1638044648294291 1.242263417405867 0  0.356216654757926 1.032569427322806 0  0.3188217956111817 1.355736727000647 0  0.5924956460852111 0.36112522004736 0  0.6594216488965849 0.1603472116132387 0  1.841804599497131 1.72214349266521 0  0.15625 0 0  0 0.15625 0  2.115898634821499 1.894570904464496 0  0.7821877980253907 0.7129993435924866 0  1.003820447087786 0.4516053462784233 0  0.477562948779147 1.138333049293613 0  0.719493678605015 1.305655360135975 0  0.9772457618587566 2.020350128938537 0  0.8764738248887107 1.826219722709673 0  1.254787875123819 2.339010653832026 0  2.343597354852534 1.249982759769001 0  0.78125 2.5 0  0.46875 2.5 0  2.5 1.40625 0  1.09375 2.5 0  2.5 0.78125 0  2.5 1.09375 0  2.03125 0 0  2.5 0.46875 0  1.40625 0 0  0.46875 0 0  0 0.46875 0  0 1.40625 0  0 1.71875 0  0 2.03125 0  2.5 1.71875 0  2.5 2.03125 0  2.005424054645407 1.653223486966518 0  0.1538730573856537 1.559850281736677 0  2.33984375 2.33984375 0  1.166539506212474 1.922878979538754 0  0.3914885633949916 1.65887232812171 0  0.5795503163042564 1.766243562569382 0  0.399533125920212 1.946786875081388 0  0.7866324979014098 2.127719094551316 0  0.3654683023546834 0.1495701132219454 0  0.1527388747131078 0.6116379440619215 0  2.013737577140188 1.391056634712135 0  1.17635437372994 2.213329084238133 0  1.737118141866284 1.010577140843115 0  2.200707118087222 1.164723314085963 0  1.697018908736685 1.993548551451517 0  0.5387621649009668 0.6070503962352419 0  2.032805785855952 0.5330427622570983 0  1.082699501358059 1.667818725183932 0  1.503819781540653 0.5468420196858188 0  2.015409142866072 2.175941657590429 0  1.752057611265444 0.869642097111018 0  0.612251684107783 2.356045720700959 0  1.902817102342857 0.6607642211999982 0  2.159616561739693 0.7867739969338844 0  0.5120038350106624 2.197302352398502 0  1.888200216011548 1.919501662489862 0  1.495909909726654 2.16028358757309 0  0.489139876703609 1.443203008943564 0  0.8819175670410521 0.3301172743913011 0  1.882591144370812 0.8155965192707721 0  1.133979796994841 1.172526771862882 0  2.206217447916667 2.084147135416667 0  2.20361328125 2.36279296875 0  1.395746985657004 1.556054166359645 0  1.704383111516207 1.734750450338683 0  0.9575737847222222 2.36274223823052 0  1.035150984253136 0.1302833343179028 0  1.383966125325753 0.7651479963479179 0  1.64003252158672 0.6824316405528895 0  2.22550785055421 1.487078576356817 0  1.760964431499756 1.48495222505201 0  1.276460980673788 2.004207003584658 0  0.1341477688427096 1.828777507920502 0  1.542261434180652 1.155296658359034 0  1.334627911613854 0.9696897472490321 0  1.30794231473696 1.119420615785191 0  0.7028260459857245 0.4438906910721139 0  1.625757433094055 1.84268057552138 0  0.9818707849053143 1.165603626132254 0  2.0086489901463 1.243134585689553 0  1.934584460420609 2.374094051915812 0  1.798434376789567 2.38671361912528 0  1.206314791201715 1.382064292497919 0  0.6333752893366955 0.7023738550008095 0  0.7796219811205605 1.42573253164258 0  1.564399711917382 1.026040828857629 0  0.3385416666666666 0.4889012896825397 0  0.1041666666666667 0.390625 0  0.989112246382566 1.543537365516289 0  2.025724425454636 0.9846960595520872 0  0.6602885475034063 2.086117390485779 0  1.607130551925032 1.267198646640915 0  0.1317864544877056 0.8896173683400176 0  1.755387840017567 2.230364320056445 0  1.301540702984401 0.1216289692748247 0  1.433170657577442 0.3331052752740999 0  1.500459610550388 0.113513924782439 0  0.6494291520606965 1.029586599619295 0  1.010146149868299 0.794897284196169 0  0.3700844198238017 2.235390157870766 0  0.3360891767780704 2.36656279435396 0  1.876856241037701 1.437150669863757 0  1.778674102957329 1.245979347269706 0  0.5472829890977179 0.1005517127039925 0  0.4669074189005698 0.3416784232954367 0  1.472765289289269 1.850899166481903 0  1.555853593327178 1.608452097912802 0  0.6708955559113426 1.646561631116984 0  0.8164699620322933 0.5924479455478063 0  0.3167738989468366 1.758696809749795 0  0.2788007305565096 1.605499483471246 0  0.7821720982350511 0.181524936294752 0  1.376812251214195 2.313340247908297 0  1.785652202614777 0.5962261755537186 0  1.761467296310972 0.4679567244718574 0  2.2265625 1.8359375 0  2.3828125 1.9140625 0  0.5279531607054191 2.071552361614785 0  2.397573269551114 0.234375 0  2.383578172599618 0.3589298466020009 0  0.1024267304488855 2.265625 0  0.1164218274003825 2.141070153397999 0  0.2696857594953064 2.135405441512016 0  2.164961300137334 0.1375322943529536 0  2.137757548369486 0.2724194778647587 0  2.238873711826398 0.3626419179496562 0  0.1001414910226386 0.234375 0  0.2176339285714286 0.3478422619047619 0  0.2503620791333544 0.1061694061057066 0  2.336445461915368 0.1250451055247424 0  0.2154004640409726 2.3918124
[...]
<PointData  Scalars="f_16-3"> 
<DataArray  type="Float64"  Name="f_16-3"  format="ascii">2.2641966863161080e-04  -2.1292039534642015e-09  -7.5106129013592795e-10  2.6436768883989419e-04  -1.4644973877273500e-09  3.7688885139351027e-07  2.4456269764512042e-04  2.2645858694988192e-04  2.9207734938311420e-04  2.1381475506710462e-04  -1.9228694498951456e-09  2.2646700757064254e-04  2.2646552275567360e-04  -6.7389581766111715e-10  -1.0847940590834397e-09  3.8418734697366628e-05  3.8308283531747548e-04  1.0304518683808960e-07  2.4881641697748299e-04  2.2263542275561156e-05  1.0435383512626007e-04  4.9902834214663372e-04  4.2959240562309410e-04  1.3352851775220656e-04  2.8068055052946089e-04  2.2874384359984059e-04  2.2433728009272960e-08  2.3746959745625149e-04  8.2868252822309418e-08  -9.2870586630608952e-10  2.2649216437158344e-04  2.5002560206991692e-05  4.8681677530724223e-04  4.1183918734423073e-04  2.0873664697083224e-05  4.7792433313415884e-04  -1.0832197207461445e-09  3.4769263847573266e-04  2.6382583523789765e-04  5.8998130992747905e-05  1.2760296249100594e-08  5.5547625638835710e-06  -2.1386574392812184e-09  -2.1336649637092273e-05  1.3769992448715924e-04  3.7568747926859056e-04  2.4841393065905813e-04  5.1410909691766411e-04  3.4307977871082221e-04  -1.2626913302942404e-09  -1.6763153398520209e-09  2.2641709121660905e-04  -9.0404183041257225e-10  6.3595802356561651e-09  2.2630800583245246e-04  2.2646515591344442e-04  2.2795805417806178e-04  -7.2731694607888099e-10  2.2646177611686014e-04  3.0299739326870346e-04  5.7802773163251241e-06  2.1509663553550512e-07  3.0931748410661285e-04  3.1050817630735405e-04  4.8123686897362912e-04  2.2704476436951712e-04  3.0107717505045402e-04  3.7000378066187883e-09  2.2692124394782433e-04  1.1689687718154899e-06  4.4962735290539319e-05  6.8102299924685157e-07  2.2648496898026698e-04  1.2474041035988165e-03  1.9759971477244732e-07  8.4520540466148192e-05  1.1815825074013672e-04  2.7457305565722429e-04  4.0396068169926873e-04  -1.3136887894965576e-09  9.1006765092754178e-07  6.4253041082593916e-07  2.3960526827321860e-05  3.8813827471582029e-06  -3.0718304293943947e-10  -7.9639148045178977e-10  -8.4627943032587674e-10  2.2796858623239251e-04  2.2646545192530579e-04  2.2645748716022961e-04  -9.8701373927265905e-10  -6.6614426054342901e-12  1.8378001291816012e-04  1.8717030644797826e-07  2.4060258732978428e-04  3.5553958671005406e-04  2.2659600517133111e-04  3.9635281420710619e-06  2.8827064303881233e-04  2.2646452208943660e-04  4.0107706372775225e-04  4.3494939531654590e-04  2.4073413131619838e-04  1.4229259253233984e-04  9.8058799006358554e-09  8.8738365439321426e-04  2.2538800191044593e-04  5.7331881344555404e-04  3.0567329238018569e-05  3.4734288425587609e-04  2.3624671231587351e-04  2.2642128945898795e-04  2.3842083216564004e-04  5.5135210177835231e-04  1.9843078461772499e-04  1.6942803631105575e-05  1.5924957405138887e-04  1.6124199684993391e-06  3.8291991930309259e-04  8.6802404949413208e-05  2.8736030855503169e-04  2.2775429315236668e-04  3.9569047859499727e-04  4.8131951927406842e-04  1.3896699835347927e-06  2.0682991841691447e-04  7.2211884798046775e-04  2.6678391402754298e-04  3.3058317192170806e-04  -1.2310744323864962e-09  4.3308965732086391e-06  2.2825625233033946e-04  3.1949798760484802e-04  -2.5877165132743570e-11  -1.0879538774285557e-09  4.5941819310501289e-04  4.2134982138979337e-04  3.6601320474268759e-04  3.5157514210867099e-04  5.4066199186426390e-04  6.4196138309902800e-10  1.8042220043966745e-09  -1.5670273346195591e-09  -1.4011314624253386e-09  4.5003076280425955e-05  1.6123477830832134e-05  3.2198609627290779e-04  3.7540680935127329e-04  2.2648148427550457e-04  -7.5840051586284689e-10  9.9990247895506853e-06  5.7025144223971921e-05  -1.7780200152645212e-09  3.7690932112498097e-04  1.0348235974806041e-04  4.9974915208635530e-04  8.7328538624972943e-08  -1.0231477767687157e-09  -1.1748061247510792e-09  7.7735223004196313e-06  1.5402975126586020e-04  3.9178206949543629e-04  6.0673117825087373e-09  -8.2661515997674675e-10  -7.4333440526514554e-10  2.2641910573550336e-04  2.2644655080019820e-04  2.2718849082088279e-04  3.2782678402887874e-04  2.3118393812361364e-04  5.6441954826930868e-06  2.9502029692701419e-09  2.1015943900320379e-04  -2.0741067121275301e-09  -5.5489409070826602e-08  1.5849406585698956e-04  1.5391602714367211e-04  7.9836669068047020e-07  3.6795625082657111e-04  4.4407002612087784e-04  2.5811779306325004e-04  2.7270354947423289e-04  2.6196936482668039e-04  9.0378441404841718e-07  2.2676532793957722e-04  2.2642237958655245e-04  1.5700838090674370e-06  2.3272248080232326e-04  -1.3208050011475650e-10  5.5386748688086259e-08  -9.9722943124153216e-10  -7.1295038304080872e-10  -1.3531229968688138e-09  -2.0595741867758526e-09  1.4850916813752152e-04  2.2646372105210465e-04  2.2646551985405918e-04  2.2646501969203307e-04  1.6190430944075183e-05  7.9946720529900159e-05  8.9636568880987124e-05  2.2649073728683630e-04  2.7134485110717700e-04  3.4691143599650175e-04  2.2753040525244354e-04  2.3169140527337482e-04  2.2655712169226638e-04  2.3033048475647061e-04  1.7776563956892105e-08  5.7199811403713845e-04  2.0765720345150593e-05  2.6651694103865033e-04  4.8337650305402780e-06  9.5060708188942389e-07  4.1375941729250598e-04  3.4333772952969597e-04  -7.1587933246217788e-10  4.2896389230710855e-04  4.4333986486512531e-08  3.5267050050214789e-04  8.3416225825247700e-07  2.2654620622318861e-04  9.0524584282333182e-09  8.3480272351587429e-09  2.2654073849064666e-04  3.0001816055314482e-04  3.7777127990729097e-04  2.4780567000791479e-04  1.7451873450561132e-07  1.3567729131005448e-07  3.2930848925909174e-04  2.1476465789452791e-04  3.3899859271175286e-04  3.9622659024364564e-04  3.0645968299791590e-04  2.3039210053077262e-04  -1.4847381644987978e-09  3.9297912711352723e-06  1.4713282961409678e-07  1.3096572971226110e-05  1.1694942607905364e-04  3.5851569589081335e-04  2.2646663631018738e-04  4.9515122136960955e-05  4.0269804397262880e-05  1.3269368924382014e-04  1.1705587242522039e-05  4.0111903287447123e-04  4.6938088942804866e-04  7.6480429930280358e-06  4.0105651922479532e-04  3.8853866688469499e-04  4.3059405896830199e-04  3.6812289782399248e-04  3.9829975098792535e-04  1.6522283777886405e-05  5.4376675356630506e-04  1.4162990417044918e-03  4.4900974170781279e-04  4.7259758001128279e-07  2.2770804663785612e-04  7.3377708814884810e-05  2.3832045890008927e-04  4.1010741119111148e-04  -1.4206217835103805e-09  -2.7739422447451673e-10  -1.2987789149288686e-09  6.0888588334856756e-04  7.5161700333225922e-05  2.2646472698047097e-04  2.2644666433124309e-04  5.3318082922109914e-05  2.7042820294264531e-05  -1.1694827131236013e-09  1.0825417260212968e-05  4.4603182733825655e-04  3.2077370191313113e-04  2.5552520079573946e-04  3.9698159810085743e-05  2.2657727507262174e-04  2.2668447594810322e-04  3.0754150722347731e-09  2.9367366030435887e-04  7.8597920803743860e-09  -2.7295161600317661e-10  8.7066427265239298e-05  6.6163168134842607e-05  2.2672005082554153e-04  -7.7255433502414195e-10  -7.7618838297582155e-10  2.2645724839896847e-04  2.2646356927551393e-04  2.2646518336603074e-04  -9.1070210131223076e-10  -9.2317155342687880e-10  -8.6344303886467689e-10  -3.1057237460149773e-07  1.9909716836515620e-04  -2.8094138920343153e-09  -8.1488158582829411e-10  2.2643968526255592e-04  2.4592318482573008e-04  -6.5815494135228935e-09  -1.1631580947646760e-09  6.2820515960228789e-06  5.0408976299173927e-08  2.4542032148527733e-07  2.2647246220441371e-04  1.7410811916360462e-04  5.7781895490014628e-04  2.2646550912908017e-04  -1.0461659254196668e-09  -7.2379571669375825e-10  2.0236720352589480e-10  1.9705350713374110e-04  5.5130584190084791e-05  2.3511321033414475e-04  2.2729040598762020e-04  2.2595406507333408e-06  3.2423069111627043e-05  1.6294330212851166e-04  -1.0112652008142134e-09  6.5862246409181455e-04  2.8850516831015129e-04  3.2961898789153008e-04  5.2621967291740796e-10  -1.6603592189245050e-09  2.3690863549547072e-07  3.0479712352695222e-04  2.3244539775322772e-04  2.7379041483090517e-08  2.4600413846405280e-04  3.7614568172181023e-04  1.0118633641878777e-04  2.3679215649930279e-04  -9.4112788746727548e-10  2.4215971235064517e-04  2.2722085914033394e-04  2.2649047584168976e-04  4.6304650499197843e-06  3.3091113065453879e-06  5.0843616641967375e-04  -1.2169894649017491e-09  6.7767493535922012e-07  3.7907538808600158e-04  -1.1245436821782248e-09  1.3425334913893896e-05  4.2500334118847192e-04  1.0650406692897400e-04  2.2674878205610150e-04  5.3037882819084411e-04  6.3409127134900504e-04  5.5905223020594641e-04  1.0279093494002802e-03  1.2392498572940389e-11  2.2646614035276189e-04  2.2655471111450069e-04  1.1662265068681988e-06  2.3400570548576974e-07  2.6255297033748169e-04  2.2643798620564735e-04  2.6752304934362742e-04  5.9895753085824741e-05  1.2619248117575074e-05  1.7472643266905476e-07  3.8341584099292451e-04  -1.1737180159880837e-09  4.1676733476199581e-04  2.3929758112727669e-04  2.6308400832762290e-04  2.5466635373878687e-04  2.2646943844343838e-04  1.9947176663974715e-06  2.9532375390716955e-04  4.1004002258050693e-04  3.2295374889759840e-04  7.0712534735510262e-05  2.9593012091456630e-04  6.4759855785275226e-04  8.7822783153827108e-05  3.1453874576842130e-04  2.0836013105598311e-04  2.8282772611949573e-08  4.9438411319346215e-04  3.7493567185644560e-04  4.7676619026889270e-04  2.9441783622062833e-04  2.5359487687872501e-04  4.4166689248961741e-08  3.9417231024926831e-04  3.9108644198467723e-08  2.4376954747512229e-07  2.2979566861116232e-04  2.9727799752978965e-04  3.6880435780503926e-04  1.8307054317744385e-04  2.6170427343787041e-04  -1.1511723065671448e-09  3.3119847222454579e-05  5.1472773397793473e-04  7.3831693272104096e-04  2.2770513739524026e-04  1.9777331567601118e-06  4.0441148949948454e-07  4.3998830228050362e-04  2.9738308515355544e-06  3.3376410762337268e-04  2.5904346627690232e-04  6.8240922042061029e-04  -7.8104277543876067e-10  2.9122359380641441e-06  9.2215522209464304e-06  3.3332364722991438e-05  -8.6912510869080026e-10  2.2931470916084929e-04  2.3391086930981124e-04  5.2211619528846530e-05  6.9375038818647963e-04  4.9919089631382985e-04  2.2643311802325600e-04  3.9476731583237596e-04  4.2903754876294644e-04  2.4896122809299080e-04  3.7698194074316363e-04  2.9761109259648016e-04  2.7545479792147863e-04  2.3048419264946142e-04  2.1552066009274728e-04  3.6790278841195467e-04  3.2741210165229727e-04  -1.8364491425694133e-09  4.7894732791216706e-04  2.2770627178304588e-04  2.2709667928299374e-04  -9.7835286463774192e-10  -1.1938058699760064e-09  2.3115267209405100e-04  -1.3624145121483228e-09  4.1195477431086138e-04  -1.5714426555653689e-09  -7.1337492496307797e-10  2.2646683946213125e-04  2.0642149833302606e-04  -1.0971111321248976e-09  3.2804746489484054e-04  5.5691838396572228e-04  3.2267194158467054e-04  8.9860658842097223e-07  1.8363070609114802e-08  -8.6574930893171936e-10  4.5811510922043683e-04  2.2773418472098078e-04  3.3185281261131753e-04  1.0851946124258230e-04  1.4210112805543125e-08  2.2961828309449070e-04  2.9031148721686489e-05  7.8160865515298518e-04  4.7798718675380283e-04  2.3662008705293368e-04  4.4606133777773030e-04  6.7026591029307427e-08  2.3044455468927206e-04  -9.4671018683691774e-10  -9.6691027898186384e-10  2.4423475345271647e-04  2.3208449946474652e-04  4.8986740481766870e-04  6.5871728056184979e-09  7.0600917451661249e-04  -1.0336077031146446e-09  1.6796316000258691e-06  1.0134395591525640e-05  7.4232406120578218e-10  3.9862328358682254e-09  -8.8206967935335317e-10  4.4964191095415101e-04  4.0572766977674810e-04  4.6433769730550630e-04  3.6094651720431164e-09  2.2641844398423006e-04  3.9355197880912822e-04  3.3373667430326265e-04  2.2652066404828979e-04  3.9218580536733285e-04  3.2314263925907634e-04  2.1556359441989839e-05  -4.0622093880075553e-10  5.1746707226650048e-04  2.2676784048319200e-04  3.0198334395232981e-04  4.4851243461837907e-09  6.1837559946958129e-05  9.7921240485540661e-06  1.5105098815421214e-09  8.4472328493968369e-06  1.0472604015283464e-05  4.0785013386769608e-04  2.2646698622909883e-04  2.5650541216294367e-04  1.0964410932325510e-09  2.3087655685853104e-05  2.1256915102854510e-04  -2.0992757942938957e-09  -7.0143281206632047e-10  -7.4486013710880622e-10  2.3256869792875906e-04  -1.5664797323806516e-09  2.2657838169141533e-04  2.2647970291019345e-04  1.5171053327244875e-06  3.9514490112719857e-04  1.2306552335597008e-07  3.4380885516301329e-04  4.3361782499471500e-06  4.3122015766660228e-04  3.8875084334742792e-06  2.2646555364421161e-04  2.2676182371967794e-04  2.2643854124993862e-04  2.2645411344342320e-04  -1.5514310696045987e-09  3.5508889242665878e-08  1.8550122384647884e-04  2.0600470016950221e-09  2.2790612123955553e-04  2.4711076855554861e-04  9.8086927737352557e-06  3.4940915830323768e-06  1.3391857457992868e-04  2.2646510182758824e-04  1.0522019653862366e-04  -2.5695951028213176e-10  -1.4820637719131124e-09  -5.5527473663430229e-10  1.2426981155637334e-07  1.7196146378922231e-08  3.4672293081978507e-07  3.9619962078052283e-05  7.7021148934647770e-05  2.3860502733354267e-05  -7.4889570272699015e-10  2.6406701342030473e-04  -8.6757185039455554e-10  2.5882411318222873e-04  3.0789111358714834e-04  7.2343709995124889e-06  3.9284004908234944e-04  3.6419592665227780e-04  4.4044383622395224e-05  1.4358279868689690e-04  2.1440847215463147e-04  1.7612403903429461e-05  2.3714799226612663e-05  -8.1818896564252183e-10  2.2646240868398761e-04  3.0214085921088728e-04  6.6222125788556968e-07  1.4486483417463659e-04  2.3576133945618397e-04  -8.6219964974694929e-10  1.8155723238485612e-05  4.0759876460984105e-04  7.7833430331537384e-05  3.5316103135900014e-04  -7.7250604824988624e-10  1.6064131666498275e-04  2.2615912335057910e-04  -6.0956591939793630e-10  2.2645090683988281e-04  -1.2794506542587902e-09  2.8601557169470409e-08  3.6622656652549621e-04  2.1532212858443154e-04  3.4373976615271015e-04  4.0549905292881994e-04  1.0524311394151622e-04  3.8423976593032928e-04  2.4786925514630177e-04  4.6531170319999990e-04  1.4073347387002888e-06  5.1325925742994086e-09  2.6599191443111257e-04  3.9959432760212617e-04  9.6608442980940183e-09  5.8828008658150783e-07  5.5434358171677076e-05  3.3558313734297491e-04  2.8355104921635419e-04  3.5307412480600211e-04  3.6645027510131558e-04  2.4191677146151203e-04  9.5808726403010064e-05  3.6513503288026208e-07  6.6349380200278454e-06  5.0495385148789545e-07  4.7884523097772360e-07  2.2743155058995413e-04  2.0266913836528559e-06  -1.6841799761409088e-09  7.0490944731715792e-08  3.4881711278476852e-05  1.4926712648792844e-06  8.5012669811905828e-08  1.8510285834961004e-08  4.2771860465034211e-04  4.9262059896353094e-04  6.6110059913936065e-05  2.3011052331403572e-04  5.7986940310352196e-05  2.8879822191981558e-04  5.1883036989529970e-07  -1.6263956787478964e-09  1.3009581611699548e-04  -8.1776657784145040e-10  1.6284629714976177e-04  4.0229644471700087e-04  3.4687260885059225e-04  5.4420514726942862e-05  1.5169456769883305e-04  2.5078593065718609e-06  2.8311725920632138e-04  2.4983858149572001e-04  -2.1105938405559899e-09  -2.5200855654502544e-09  2.1786241942978041e-04  -1.4063493021931577e-09  2.5117078652739968e-04  -2.7840630937120862e-08  2.2646375434338213e-04  -7.4132569929729543e-10  1.6779051066072726e-04  3.1807758462956085e-04  2.7268615921997390e-06  5.5884595200770332e-05  3.4278517575230644e-04  7.7200515908663718e-08  3.9314067052603606e-04  -2.0877382914001882e-09  -8.8555673954618126e-10  -9.6748392334835840e-10  -7.4747955981878912e-11  8.3052215033394360e-07  8.4951858738849533e-04  2.2657360287141735e-04  2.3306746670689332e-04  2.3423521709816408e-04  2.8908589623652126e-04  3.3339397659531739e-04  -1.1682819649997549e-09  2.5835460386110096e-04  5.0881825771017185e-04  4.5293797338398614e-04  4.0638823016977553e-05  1.9266583472776988e-06  5.5772796724587481e-07  2.2646429262539311e-04  2.2653296690672604e-04  2.7694666702793655e-04  7.6303073509966836e-06  -1.5127170956693145e-09  3.5277561704874125e-04  2.2715384437350128e-04  3.8966448334737586e-04  2.2643371319534870e-04  2.2642055012333831e-04  2.5438932855114288e-04  2.2646540671181892e-04  2.2655593693634204e-04  1.0073108936851693e-05  -1.1237360027002867e-09  -1.2199577796824291e-09  1.4921568009653699e-07  7.4761759723929955e-07  3.1979335303401144e-06  2.2636903728430555e-04  2.2644791221091326e-04  2.2646266323134864e-04  2.3788414203090898e-04  2.2275239079621003e-04  -1.7261930641457300e-09  -1.0420820575750891e-09  2.2646542373885728e-04  2.2641748421144142e-04  -2.1274740070686350e-09  2.2645574873340598e-04  -7.3432063617988364e-10  -2.0057558665110654e-09  -1.3121882200522957e-09  -7.7338919387725292e-07  1.0301240266969775e-06  3.6874046841566465e-04  1.7136656554405898e-04  2.4195816127946793e-04  2.8949415528408838e-04  2.2646474079699117e-04  2.8373148672068276e-04  1.9945572521077505e-04  2.4805271745962149e-05  1.0562618986305356e-04  -7.2004295166716292e-10  3.8441081122260229e-08  2.8684309099948210e-04  4.1597573274797646e-04  2.2703657399526800e-04  2.2900805889067736e-07  2.5087465910818919e-04  1.2706117445757117e-04  5.6567690135750511e-04  2.6481792956138011e-04  5.5974099726604026e-05  -1.9808502684646382e-09  4.4230178835922348e-04  2.9394728537515821e-04  2.2649194274726103e-04  5.1738330913679185e-04  1.7282507095891953e-06  2.4507867815226723e-04  2.2652250636656982e-04  2.2646722848418147e-04  2.2650379488868720e-04  2.2675398628441726e-04  4.1447704423200381e-04  1.0553161339510327e-03  4.0199597598512815e-07  4.3310951756071411e-04  2.7857553620394207e-04  2.4914538449245251e-06  5.4364505313536464e-04  2.6269730226889213e-06  2.2663730061360095e-04  2.7323081681420428e-04  3.9906209754577581e-04  3.9526327056484681e-04  3.4876003480017944e-04  2.4818193082714441e-04  2.8875879574683093e-08  5.9607153454724370e-04  5.2548205749879714e-04  -9.8764432929004450e-10  1.0216102738492288e-07  6.6120245955844854e-04  2.9951523796115857e-08  1.8132905925993301e-09  4.1299447256601678e-04  1.1775867461327601e-05  5.0428922229074370e-05  4.8748600053171148e-05  4.1962003958761340e-05  2.8196621263072924e-05  2.3754087232546344e-04  2.4245634959309189e-04  4.0696186241202218e-04  2.8615636807427519e-05  1.5423462876846957e-05  2.2816330418779970e-05  1.0216992156553104e-05  2.2760427867130450e-04  2.2647242986484622e-04  3.1947046026170356e-04  2.2851408221683176e-04  8.1726949571871010e-06  2.2671448613434115e-04  2.2649790937982024e-04  3.0127187238268913e-04  2.2312879690406628e-05  2.1037344276600639e-08  2.7537544331562842e-09  2.2646967989048970e-04  3.1145810738104316e-04  2.2747376448692096e-04  2.3041710619673867e-04  2.2738044471741831e-04  1.4297701206154008e-04  -8.9686583488231648e-10  2.4986820857305481e-04  2.6365533542141336e-04  2.2663170022313721e-04  2.2648718035281953e-04  2.2647913885024020e-04  3.6196699089824824e-04  1.8842532188738799e-04  -1.1858873637373823e-09  1.8869409044172457e-05  1.8085197398278812e-09  6.3178424127406803e-06  3.8001015004807608e-04  3.4545532869932757e-04  2.3021598454926051e-04  1.0606710230633306e-04  -1.0057357439518129e-09  1.7625500529008884e-04  -1.3555350223164655e-09  3.9160334893502993e-04  7.2981166092644131e-04  -1.0570660733319350e-09  3.0999372859843722e-04  3.8416447949746462e-04  7.7509247153743685e-05  4.3373828865406290e-09  2.2643165058363539e-04  2.3633768103428464e-04  4.4068258472617034e-04  1.6864653209751421e-04  2.5751078756670252e-04  4.2763317559479182e-04  4.0004931552009451e-04  2.3653867798425682e-04  -8.0907073544266679e-10  1.4624637550485864e-07  4.7024667030560205e-04  2.6951702806043938e-04  2.6349565112037554e-04  2.2664255983024007e-04  2.2647756249856324e-04  -3.2300162482141871e-10  2.2643029928504118e-04  7.5703045301299500e-09  -8.4293278987122424e-10  3.6535915634997599e-04  2.2654714131625377e-04  -1.2640897639329895e-09  2.9889947579175299e-04  -9.5301313503175009e-10  4.269