<?xml version="1.0"?>
<VTKFile type="UnstructuredGrid"  version="0.1"  >
<UnstructuredGrid>
<Piece  NumberOfPoints="6486" NumberOfCells="12696">
<Points>
<DataArray  type="Float64"  NumberOfComponents="3"  format="ascii">0 2.5 0  0 0 0  2.5 0 0  2.5 2.5 0  1.25 0 0  2.5 1.25 0  1.25 2.5 0  0 1.25 0  1.25 1.25 0  0 0.625 0  0.625 0 0  0.625 2.5 0  0 1.875 0  2.5 0.625 0  1.875 0 0  2.5 1.875 0  1.875 2.5 0  1.770833333333333 0.7291666666666666 0  0.7291666666666666 1.770833333333333 0  0.9375 0.625 0  1.875 1.5625 0  0.642361111111111 1.163194444444444 0  1.341594827586207 1.883979885057471 0  0.46875 0.46875 0  2.03125 2.03125 0  0.3626104797979798 1.513178661616162 0  1.381740196078431 0.4564950980392157 0  0.9375 2.172619047619047 0  2.172619047619047 0.9375 0  2.096354166666667 0.4036458333333332 0  0.4036458333333333 2.096354166666667 0  1.684027777777778 1.163194444444444 0  0.3418803418803419 0.8693910256410255 0  1.642742622813391 2.162164207604464 0  1.275619849389031 0.8465650753054845 0  0.9136284722222221 1.434461805555556 0  1.732437511238546 0.3406962303960658 0  0.9714402568595876 1.029779313093998 0  1.52281746031746 1.485615079365079 0  2.1875 1.71875 0  1.06819722569879 0.2997236128493951 0  2.136114211309524 1.303478422619048 0  0.3125 0 0  0 0.3125 0  2.5 2.1875 0  2.1875 2.5 0  0.3200021620376328 1.192323085056694 0  0.6738456129277992 0.8304377375553881 0  1.757891808928991 1.861952730357003 0  1.5625 0 0  0.9375 0 0  0.3125 2.5 0  2.1875 0 0  2.5 0.9375 0  0 0.9375 0  0 1.5625 0  0.9375 2.5 0  2.5 0.3125 0  0 2.1875 0  1.5625 2.5 0  2.5 1.5625 0  0.7448220909826522 0.3003573636608841 0  1.027298850574712 1.871151477832512 0  1.331260495098891 2.197262878816185 0  1.207917681892289 1.582765010956622 0  0.4339993447432606 1.801186844743261 0  0.6337298768939392 1.443093039772727 0  2.049851190476191 0.6826636904761904 0  0.6584821428571428 2.219122023809524 0  1.89575676467455 0.9798457973793544 0  1.437570562095628 1.059380588255917 0  1.502090052505845 0.6987070896496241 0  0.2040860661083546 1.705323965099331 0  0.2083333333333333 0.46875 0  0.5070952039991439 0.2211150679997147 0  0.6916302856529919 0.5813591430410241 0  2.265625 1.953125 0  2.2265625 2.2265625 0  1.886424081252096 2.243391360417365 0  1.40625 0.202164758520858 0  0.2269345238095238 0.2269345238095238 0  1.152730869673694 0.5225850378741401 0  1.885631899587912 1.312095130148776 0  1.614808884009367 0.9049784971014416 0  1.890095442220658 0.5126535558463003 0  2.323168682795699 0.46875 0  2.268811725689575 0.2304742875213018 0  0.6002389442105756 1.967426444210576 0  0.1768313172043011 2.03125 0  0.2311882743104251 2.269525712478698 0  2.03125 0.176831317204301 0  2.280262553344767 0.6954945504579233 0  1.979219539285994 1.809922269642997 0  2.336309523809524 1.09375 0  1.09375 2.336309523809524 0  0.9314042474388009 1.662973812215543 0  0.1634067999087722 1.40625 0  2.337090640094896 1.40625 0  1.141616997467638 2.069311773587991 0  0.46875 2.338939559681489 0  1.542440307908715 1.734944797244472 0  1.556713687786879 1.956977865354753 0  0.8264238995344066 1.975424467820646 0  1.466326331454725 1.275271369760862 0  1.655675324257095 0.5444159974393489 0  0.3385416666666666 0.6479255698005697 0  0 0.78125 0  0.5236073939200119 0.984090461540625 0  2.091665741047893 1.519793517904215 0  1.71875 2.5 0  0.5356538886262603 1.623137930505009 0  0 1.09375 0  0.1932884281517095 1.015625 0  0.8569313582417669 1.2198915584249 0  0.8876981284879677 0.8329884081524883 0  1.115618488474214 0.7219586973356271 0  1.186950366204949 1.043465130075318 0  2.057459118787237 1.110823087309335 0  1.830651283878689 2.049810069572418 0  1.689107969301489 1.367247437031697 0  0.4921048768039656 1.298643370653124 0  0.8213975694444444 2.336309523809524 0  2.03125 2.5 0  1.049729400480002 1.283723261332814 0  1.308101375801673 0.6489479469700392 0  2.5 2.34375 0  0.4968777175037714 0.7562964879736076 0  1.40625 2.5 0  1.501347663534097 2.307027627307738 0  1.602813712048603 0.1926218191360736 0  0.8393082906308107 0.463778306132633 0  1.682663349152719 1.598471865581041 0  0.7774174680851571 1.560004941327907 0  1.554204170364662 0.3898593897892066 0  1.842184459051087 0.186443880058197 0  1.358107417651776 1.696381759610015 0  1.18859291992392 1.77598670078022 0  0.1875331222687418 0.7609599743339348 0  1.339536743965101 1.422080365801479 0  0.7788179348750389 0.9955343414928611 0  0.9062978492805438 0.1919636509126373 0  1.256007360640958 0.3160320559396114 0  1.09375 0 0  1.174986727221844 0.1594990293443933 0  2.34375 1.796875 0  2.318026474511116 1.589177949022232 0  2.34375 2.5 0  1.672742954892153 2.332882724550692 0  0.2683637361947215 1.874801596909639 0  2.174770749820102 0.5581009131310781 0  1.443279522965991 0.8870068372898454 0  0.3385416666666667 0.3571428571428572 0  0.78125 0 0  2.060421048269335 2.314363248763811 0  1.088078737088509 0.8967352118723447 0  1.087825368444708 1.454931510884769 0  2.018308232129541 0.8548495425854904 0  1.943987311736842 0.3246298523011434 0  1.71875 0 0  1.85337849796276 1.144833312386208 0  2.3486328125 2.1044921875 0  1.407588788651747 2.042968789119587 0  2.336309523809524 0.865366648092144 0  2.34375 0 0  2.5 0.15625 0  0.15625 2.5 0  0 2.34375 0  0.1638044648294291 1.242263417405867 0  0.356216654757926 1.032569427322806 0  0.3188217956111817 1.355736727000647 0  0.5924956460852111 0.36112522004736 0  0.6594216488965849 0.1603472116132387 0  1.841804599497131 1.72214349266521 0  0.15625 0 0  0 0.15625 0  2.115898634821499 1.894570904464496 0  0.7821877980253907 0.7129993435924866 0  1.003820447087786 0.4516053462784233 0  0.477562948779147 1.138333049293613 0  0.719493678605015 1.305655360135975 0  0.9772457618587566 2.020350128938537 0  0.8764738248887107 1.826219722709673 0  1.254787875123819 2.339010653832026 0  2.343597354852534 1.249982759769001 0  0.78125 2.5 0  0.46875 2.5 0  2.5 1.40625 0  1.09375 2.5 0  2.5 0.78125 0  2.5 1.09375 0  2.03125 0 0  2.5 0.46875 0  1.40625 0 0  0.46875 0 0  0 0.46875 0  0 1.40625 0  0 1.71875 0  0 2.03125 0  2.5 1.71875 0  2.5 2.03125 0  2.005424054645407 1.653223486966518 0  0.1538730573856537 1.559850281736677 0  2.33984375 2.33984375 0  1.166539506212474 1.922878979538754 0  0.3914885633949916 1.65887232812171 0  0.5795503163042564 1.766243562569382 0  0.399533125920212 1.946786875081388 0  0.7866324979014098 2.127719094551316 0  0.3654683023546834 0.1495701132219454 0  0.1527388747131078 0.6116379440619215 0  2.013737577140188 1.391056634712135 0  1.17635437372994 2.213329084238133 0  1.737118141866284 1.010577140843115 0  2.200707118087222 1.164723314085963 0  1.697018908736685 1.993548551451517 0  0.5387621649009668 0.6070503962352419 0  2.032805785855952 0.5330427622570983 0  1.082699501358059 1.667818725183932 0  1.503819781540653 0.5468420196858188 0  2.015409142866072 2.175941657590429 0  1.752057611265444 0.869642097111018 0  0.612251684107783 2.356045720700959 0  1.902817102342857 0.6607642211999982 0  2.159616561739693 0.7867739969338844 0  0.5120038350106624 2.197302352398502 0  1.888200216011548 1.919501662489862 0  1.495909909726654 2.16028358757309 0  0.489139876703609 1.443203008943564 0  0.8819175670410521 0.3301172743913011 0  1.882591144370812 0.8155965192707721 0  1.133979796994841 1.172526771862882 0  2.206217447916667 2.084147135416667 0  2.20361328125 2.36279296875 0  1.395746985657004 1.556054166359645 0  1.704383111516207 1.734750450338683 0  0.9575737847222222 2.36274223823052 0  1.035150984253136 0.1302833343179028 0  1.383966125325753 0.7651479963479179 0  1.64003252158672 0.6824316405528895 0  2.22550785055421 1.487078576356817 0  1.760964431499756 1.48495222505201 0  1.276460980673788 2.004207003584658 0  0.1341477688427096 1.828777507920502 0  1.542261434180652 1.155296658359034 0  1.334627911613854 0.9696897472490321 0  1.30794231473696 1.119420615785191 0  0.7028260459857245 0.4438906910721139 0  1.625757433094055 1.84268057552138 0  0.9818707849053143 1.165603626132254 0  2.0086489901463 1.243134585689553 0  1.934584460420609 2.374094051915812 0  1.798434376789567 2.38671361912528 0  1.206314791201715 1.382064292497919 0  0.6333752893366955 0.7023738550008095 0  0.7796219811205605 1.42573253164258 0  1.564399711917382 1.026040828857629 0  0.3385416666666666 0.4889012896825397 0  0.1041666666666667 0.390625 0  0.989112246382566 1.543537365516289 0  2.025724425454636 0.9846960595520872 0  0.6602885475034063 2.086117390485779 0  1.607130551925032 1.267198646640915 0  0.1317864544877056 0.8896173683400176 0  1.755387840017567 2.230364320056445 0  1.301540702984401 0.1216289692748247 0  1.433170657577442 0.3331052752740999 0  1.500459610550388 0.113513924782439 0  0.6494291520606965 1.029586599619295 0  1.010146149868299 0.794897284196169 0  0.3700844198238017 2.235390157870766 0  0.3360891767780704 2.36656279435396 0  1.876856241037701 1.437150669863757 0  1.778674102957329 1.245979347269706 0  0.5472829890977179 0.1005517127039925 0  0.4669074189005698 0.3416784232954367 0  1.472765289289269 1.850899166481903 0  1.555853593327178 1.608452097912802 0  0.6708955559113426 1.646561631116984 0  0.8164699620322933 0.5924479455478063 0  0.3167738989468366 1.758696809749795 0  0.2788007305565096 1.605499483471246 0  0.7821720982350511 0.181524936294752 0  1.376812251214195 2.313340247908297 0  1.785652202614777 0.5962261755537186 0  1.761467296310972 0.4679567244718574 0  2.2265625 1.8359375 0  2.3828125 1.9140625 0  0.5279531607054191 2.071552361614785 0  2.397573269551114 0.234375 0  2.383578172599618 0.3589298466020009 0  0.1024267304488855 2.265625 0  0.1164218274003825 2.141070153397999 0  0.2696857594953064 2.135405441512016 0  2.164961300137334 0.1375322943529536 0  2.137757548369486 0.2724194778647587 0  2.238873711826398 0.3626419179496562 0  0.1001414910226386 0.234375 0  0.2176339285714286 0.3478422619047619 0  0.2503620791333544 0.1061694061057066 0  2.336445461915368 0.1250451055247424 0  0.2154004640409726 2.3918124
[...]
<PointData  Scalars="f_16-3"> 
<DataArray  type="Float64"  Name="f_16-3"  format="ascii">2.2646536325110633e-04  -2.8058782394095873e-09  -1.4277528179269432e-09  2.6439211466920703e-04  -2.1411716870286881e-09  3.7621222976073193e-07  2.4459257270304050e-04  2.2645791035925614e-04  2.9207667280060185e-04  2.1381407839284310e-04  -2.5995437358448344e-09  2.2650538385462899e-04  2.2646500492112269e-04  -1.3505597887461719e-09  -1.7614711109301023e-09  3.8418138689165896e-05  3.8310872547759917e-04  1.0236851109088838e-07  2.4881576620805880e-04  2.2262865601278055e-05  1.0435316131899864e-04  4.9902766551975148e-04  4.2959183881135333e-04  1.3352784107792075e-04  2.8068035945856193e-04  2.2874316843167207e-04  2.1757053683849692e-08  2.3747108467221597e-04  8.2191562417108866e-08  -1.6053917288681341e-09  2.2649288453818585e-04  2.5001883546123953e-05  4.8681609863436722e-04  4.1184021405281303e-04  2.0872988022907049e-05  4.7792365726693635e-04  -1.7598952347379528e-09  3.4769196180682409e-04  2.6382516006079088e-04  5.8997468754983652e-05  1.2083621962316835e-08  5.5540859328231967e-06  -2.8153317252266088e-09  -2.1337326311378213e-05  1.3770124086490932e-04  3.7571468962513329e-04  2.4841325404398394e-04  5.1410842024378334e-04  3.4307918655515017e-04  -1.9393659138213497e-09  -2.3529896259944614e-09  2.2646551985099319e-04  -1.5807312889052233e-09  5.6829281869525929e-09  2.2630732916280124e-04  2.2646448237722115e-04  2.2799290918361454e-04  -1.4039998700234040e-09  2.2646521105913064e-04  3.0302461740188276e-04  5.7796021880611884e-06  2.1441996124954774e-07  3.0931689130308908e-04  3.1050981532505665e-04  4.8123619659800698e-04  2.2704413311582002e-04  3.0107649921511196e-04  3.0233536633551530e-09  2.2692492415366273e-04  1.1682920942812804e-06  4.4962058619482546e-05  6.8034632483945844e-07  2.2648430779802670e-04  1.2474034269245307e-03  1.9692304048650183e-07  8.4519863791863986e-05  1.1815778059972642e-04  2.7457575553570105e-04  4.0396405171518550e-04  -1.9903631441115667e-09  9.0939097664159634e-07  6.4185373653798614e-07  2.3959850248273885e-05  3.8807060727341107e-06  -9.8386114216491474e-10  -1.4730871503165195e-09  -1.5229744176179463e-09  2.2796821094112773e-04  2.2646556326874945e-04  2.2646542573689961e-04  -1.6636956707369159e-09  -6.8335758732346866e-10  1.8377938613262944e-04  1.8649361987233048e-07  2.4061216890427386e-04  3.5553892043205948e-04  2.2659532893244821e-04  3.9628516592555057e-06  2.8827060289360763e-04  2.2647801679401215e-04  4.0107640935351012e-04  4.3494897148562133e-04  2.4073370147137347e-04  1.4229191595412172e-04  9.1292050663955273e-09  8.8738297771894946e-04  2.2538732523699995e-04  5.7331813677695778e-04  3.0566653757040025e-05  3.4736796655135345e-04  2.3624604072607696e-04  2.2642061280461816e-04  2.3842015550219371e-04  5.5135142518059586e-04  1.9843010794367636e-04  1.6942126956832686e-05  1.5924889738260357e-04  1.6117432881582377e-06  3.8291990763133046e-04  8.6801728544534025e-05  2.8735963207530052e-04  2.2776521970824899e-04  3.9571557018868640e-04  4.8131884278061987e-04  1.3889933092361459e-06  2.0683748288797600e-04  7.2211817130634444e-04  2.6681273440437228e-04  3.3058909406465109e-04  -1.9077491300423667e-09  4.3302198989227141e-06  2.2825558069009390e-04  3.1949731433463153e-04  -7.0255169994220979e-10  -1.7646308755702869e-09  4.5941753017907859e-04  4.2134918033209036e-04  3.6601252806878415e-04  3.5157446612137978e-04  5.4066131519486945e-04  -3.4712902976351699e-11  1.1275477077776391e-09  -2.2437016223508095e-09  -2.0778057521537502e-09  4.5002433519477600e-05  1.6122803778831893e-05  3.2201186589557630e-04  3.7541418978978558e-04  2.2648092597766763e-04  -1.4350921953726531e-09  9.9983481153771463e-06  5.7024467549685987e-05  -2.4546943012430159e-09  3.7691625357527171e-04  1.0348168307424758e-04  4.9974847651064393e-04  8.6651856398287353e-08  -1.6998271436358854e-09  -1.8514813691738052e-09  7.7728456313237093e-06  1.5403000529067958e-04  3.9178194982005047e-04  5.3906191594041836e-09  -1.5033119262146012e-09  -1.4200241833279654e-09  2.2646536622509945e-04  2.2646530970311596e-04  2.2718781423209988e-04  3.2782610736576941e-04  2.3118326172468510e-04  5.6435188084071491e-06  2.2735286833200085e-09  2.1015878268103102e-04  -2.7507809980729171e-09  -5.6166083356771950e-08  1.5849350905824594e-04  1.5391535046941501e-04  7.9769001639418637e-07  3.6795557418720342e-04  4.4406934966600970e-04  2.5811748472625803e-04  2.7270292031652030e-04  2.6197768186871377e-04  9.0310774572859574e-07  2.2680134255224511e-04  2.2646850703856618e-04  1.5694073263972649e-06  2.3275510581378950e-04  -8.0874349327158471e-10  5.4710101436243019e-08  -1.6739106804443136e-09  -1.3896226220829480e-09  -2.0297973640358336e-09  -2.7362484727212587e-09  1.4850849146323572e-04  2.2646304484531018e-04  2.2646486287767638e-04  2.2646510534035175e-04  1.6189766297263434e-05  7.9946515323093479e-05  8.9635899765169277e-05  2.2649006360969288e-04  2.7135317556450196e-04  3.4691090142368496e-04  2.2752973608914314e-04  2.3169075594643530e-04  2.2655670944536185e-04  2.3033126101438975e-04  1.7099889670946724e-08  5.7199743736287018e-04  2.0765043898741564e-05  2.6651897010245386e-04  4.8330883562348764e-06  9.4993039685837042e-07  4.1375908779701107e-04  3.4333705285541566e-04  -1.3925622553721395e-09  4.2896322669042395e-04  4.3657312058869682e-08  3.5267218477868026e-04  8.3348558285810965e-07  2.2656063483011870e-04  8.3757800277183419e-09  7.6713368365286792e-09  2.2654363389274144e-04  3.0001763899822355e-04  3.7777229769298372e-04  2.4780499407650992e-04  1.7384206021957252e-07  1.3500061331211100e-07  3.2930781262618117e-04  2.1476481741348647e-04  3.3900982490631115e-04  3.9622591670301617e-04  3.0645903004305184e-04  2.3040533619890179e-04  -2.1614124510194069e-09  3.9291145968395615e-06  1.4645615481610484e-07  1.3095896944312315e-05  1.1694875061907538e-04  3.5851534421974316e-04  2.2646603046479736e-04  4.9514445476171218e-05  4.0269127723762797e-05  1.3269301258254075e-04  1.1704910568236153e-05  4.0111842417139457e-04  4.6938021279720405e-04  7.6473663436093210e-06  4.0106769528475383e-04  3.8855152341376264e-04  4.3059338275413579e-04  3.6812222114974248e-04  3.9829907509504278e-04  1.6521607104909202e-05  5.4376607689201955e-04  1.4162983650302058e-03  4.4900906793897654e-04  4.7192089755160197e-07  2.2770849524180145e-04  7.3377032210516669e-05  2.3831978222839549e-04  4.1011008925598248e-04  -2.0972960931813796e-09  -9.5406858778044128e-10  -1.9754533793220089e-09  6.0888520668347652e-04  7.5161023659027680e-05  2.2646958053044845e-04  2.2646599071616673e-04  5.3317406762615118e-05  2.7042143661209152e-05  -1.8461569990694814e-09  1.0824740585927024e-05  4.4603122579534233e-04  3.2077303094464415e-04  2.5552453140821553e-04  3.9697483135801937e-05  2.2657662661079773e-04  2.2668380374350877e-04  2.3987407862611680e-09  2.9367995852471514e-04  7.1831160848191565e-09  -9.4962740697985026e-10  8.7065806801113799e-05  6.6162615920935681e-05  2.2672039308496367e-04  -1.4492491927471736e-09  -1.4528827970581151e-09  2.2646526116320165e-04  2.2646519460646025e-04  2.2646665243675798e-04  -1.5873908600415436e-09  -1.5998590034088897e-09  -1.5401364744438118e-09  -3.1124904888744274e-07  1.9909649169087026e-04  -3.4860881779796999e-09  -1.4915784207110969e-09  2.2646536784558591e-04  2.4592582018094559e-04  -7.2582236994682756e-09  -1.8398334220386325e-09  6.2813749217377425e-06  4.9732302010605476e-08  2.4474364718750636e-07  2.2647224449888590e-04  1.7410744373890224e-04  5.7781827825414099e-04  2.2646512855786766e-04  -1.7228444105327341e-09  -1.4004874575359696e-09  -4.7432179736606009e-10  1.9705590971077800e-04  5.5129907515799027e-05  2.3511265081928759e-04  2.2728986307492331e-04  2.2588639763151262e-06  3.2422395674855560e-05  1.6294262577709869e-04  -1.6879421215175983e-09  6.5862178741891314e-04  2.8850450284062854e-04  3.2961834087418169e-04  -1.5047138583954044e-10  -2.3370335049425283e-09  2.3623194386942789e-07  3.0479756211902249e-04  2.3244472111337314e-04  2.6702357262447975e-08  2.4600346178992521e-04  3.7614500520654438e-04  1.0118568032340147e-04  2.3679162864536729e-04  -1.6178086592888328e-09  2.4217908059133081e-04  2.2722018325765434e-04  2.2648979934583908e-04  4.6297890107197034e-06  3.3084346805366275e-06  5.0843548975764374e-04  -1.8936643013336955e-09  6.7699826053126063e-07  3.7907614841339149e-04  -1.8012197467191484e-09  1.3424662648434653e-05  4.2500336937064970e-04  1.0650339027723301e-04  2.2676903959643809e-04  5.3037815173412393e-04  6.3409059467497498e-04  5.5905155353166351e-04  1.0279086727259987e-03  -6.6428240870480586e-10  2.2646547137996552e-04  2.2655403448431789e-04  1.1655498979857024e-06  2.3332904257800692e-07  2.6257193492763419e-04  2.2646533354942749e-04  2.6753927427272813e-04  5.9895078315155198e-05  1.2618571686044343e-05  1.7404975834112542e-07  3.8343345794094008e-04  -1.8503925170337972e-09  4.1676766642270220e-04  2.3929762887171845e-04  2.6308346384156092e-04  2.5466567723555117e-04  2.2646876284843938e-04  1.9940409921115262e-06  2.9532503007819350e-04  4.1003935500362237e-04  3.2295307223775756e-04  7.0711858061881362e-05  2.9594814646781209e-04  6.4759788118094708e-04  8.7822106479571566e-05  3.1453806909440934e-04  2.0835945438257700e-04  2.7606091949317997e-08  4.9438343681655877e-04  3.7493502950779412e-04  4.7676551738063685e-04  2.9441737548692340e-04  2.5359529750853583e-04  4.3489995089695815e-08  3.9417163615777735e-04  3.8431969902525533e-08  2.4309287318917553e-07  2.2979927083543328e-04  2.9727732085846386e-04  3.6880368113247953e-04  1.8307018655082944e-04  2.6170359731854723e-04  -1.8278471483271101e-09  3.3119181037777609e-05  5.1472705778979311e-04  7.3831625604675599e-04  2.2770446072891773e-04  1.9770564788204247e-06  4.0373480313919217e-07  4.3998762772388120e-04  2.9731541815002931e-06  3.3377608082859944e-04  2.5904279224879865e-04  6.8240854374694614e-04  -1.4577385012442377e-09  2.9115592637764534e-06  9.2208755466732346e-06  3.3331688048796313e-05  -1.5458168586161409e-09  2.2931404687934057e-04  2.3391019492612034e-04  5.2210943082376247e-05  6.9374971151221732e-04  4.9919021965993688e-04  2.2647659549537234e-04  3.9476663930344114e-04  4.2903708277452937e-04  2.4896060577923472e-04  3.7698460006730148e-04  2.9761041630529028e-04  2.7545412133658125e-04  2.3048359433830692e-04  2.1551999369970697e-04  3.6790235163565888e-04  3.2741184998402582e-04  -2.5131234285290387e-09  4.7894665274314784e-04  2.2772911558296098e-04  2.2710467567813277e-04  -1.6550353908174222e-09  -1.8704801689678143e-09  2.3115241550081633e-04  -2.0390888672898308e-09  4.1195479511821738e-04  -2.2481169415302621e-09  -1.3900708321303397e-09  2.2646618576083419e-04  2.0642082166134494e-04  -1.7737876213620930e-09  3.2806595905591145e-04  5.5691770729315014e-04  3.2267127714527701e-04  8.9792991409175357e-07  1.7686396322905090e-08  -1.5424427511598724e-09  4.5811444472970762e-04  2.2773350806760061e-04  3.3185550225590076e-04  1.0851913240843388e-04  1.3533418605927357e-08  2.2965315917738950e-04  2.9030472047412337e-05  7.8160797847883932e-04  4.7798651048124258e-04  2.3661941037956026e-04  4.4606068955938075e-04  6.6349916458297283e-08  2.3044387813351113e-04  -1.6233955050375577e-09  -1.6435937926780039e-09  2.4423407712351744e-04  2.3209020217823082e-04  4.8986672814783200e-04  5.9104982225967360e-09  7.0600849784237436e-04  -1.7102867949310497e-09  1.6789549257399163e-06  1.0133718917240112e-05  6.5649772052945981e-11  3.3095585208949221e-09  -1.5587439978786994e-09  4.4964127142150146e-04  4.0572708126673188e-04  4.6433702654529677e-04  2.9327908860977025e-09  2.2646603527046169e-04  3.9355704643695384e-04  3.3374183889537052e-04  2.2652803638407662e-04  3.9218512876427932e-04  3.2316900793566037e-04  2.1555682767704194e-05  -1.0828952258541849e-09  5.1746639567055801e-04  2.2676906092724652e-04  3.0198266911003979e-04  3.8084499577414440e-09  6.1836890526265694e-05  9.7914473745098606e-06  8.3385149076462807e-10  8.4465569234751951e-06  1.0471927361431780e-05  4.0785161526407741e-04  2.2646650768640066e-04  2.5650546546372689e-04  4.1976004823951737e-10  2.3086979016478166e-05  2.1256847437348507e-04  -2.7759500802392922e-09  -1.3780989973970135e-09  -1.4215464596252850e-09  2.3258893450741651e-04  -2.2431540185401530e-09  2.2657777736246061e-04  2.2647907157084826e-04  1.5164286568327585e-06  3.9515892566936625e-04  1.2238884906965883e-07  3.4380914824289359e-04  4.3355015756612843e-06  4.3121948100442742e-04  3.8868317603028225e-06  2.2646493756637979e-04  2.2676154912002272e-04  2.2646806933816421e-04  2.2647976530973206e-04  -2.2281053574032531e-09  3.4832214956672951e-08  1.8550054721521673e-04  1.3833512038512183e-09  2.2790898486452996e-04  2.4711017974661081e-04  9.8080161029787442e-06  3.4934149079869889e-06  1.3391790636481293e-04  2.2646512931966641e-04  1.0521956134568139e-04  -9.3364669942866093e-10  -2.1587380663128385e-09  -1.2319383505753956e-09  1.2359312622800213e-07  1.6519461648374550e-08  3.4604625083895321e-07  3.9619335671552635e-05  7.7020561707520413e-05  2.3859841089068120e-05  -1.4255867767357873e-09  2.6406778556253461e-04  -1.5442592573105188e-09  2.5882343653439320e-04  3.0789043694144674e-04  7.2336943255659996e-06  3.9284319462989530e-04  3.6421160272884895e-04  4.4043706995764800e-05  1.4358349305683462e-04  2.1440934730277084e-04  1.7611727229317616e-05  2.3714122553030699e-05  -1.4948852694182300e-09  2.2646536210838776e-04  3.0214020357567943e-04  6.6154458359949803e-07  1.4486417588585783e-04  2.3576860479829093e-04  -1.5388933223956139e-09  1.8155046564199668e-05  4.0759808793555511e-04  7.7832753657251457e-05  3.5316043014613376e-04  -1.4492011400135674e-09  1.6064064319233057e-04  2.2615844667847490e-04  -1.2862495370504247e-09  2.2646530408875658e-04  -1.9561251314681537e-09  2.7924882018596988e-08  3.6622709770682614e-04  2.1532760935015347e-04  3.4373909304738834e-04  4.0550445084325926e-04  1.0524299482571553e-04  3.8423908925694394e-04  2.4786858027236097e-04  4.6531104177302719e-04  1.4066580647578746e-06  4.4559149688333149e-09  2.6599126572579362e-04  3.9959379180610685e-04  8.9841700121477669e-09  5.8760341205071545e-07  5.5433875016248385e-05  3.3558246091020406e-04  2.8355037254949313e-04  3.5307344850595912e-04  3.6644962703611007e-04  2.4191609492436899e-04  9.5808049732624880e-05  3.6445835859334006e-07  6.6342615489251895e-06  5.0427717385011845e-07  4.7816855669177827e-07  2.2743087418950817e-04  2.0260147093669114e-06  -2.3608542620896800e-09  6.9814270445763998e-08  3.4881034604190953e-05  1.4919945905933393e-06  8.4335998755898860e-08  1.7833635329713387e-08  4.2771792896895470e-04  4.9261992353205131e-04  6.6109383243002776e-05  2.3010984727288950e-04  5.7986263636066262e-05  2.8879758145179826e-04  5.1815368483629510e-07  -2.3030699652310094e-09  1.3009528083286184e-04  -1.4944615606914981e-09  1.6284624673469823e-04  4.0229600902846505e-04  3.4687570946681696e-04  5.4419838052767924e-05  1.5169395169887709e-04  2.5071826322324424e-06  2.8312140777739117e-04  2.4984781579337446e-04  -2.7872681265013761e-09  -3.1967598513956398e-09  2.1786200093278709e-04  -2.0830236245282531e-09  2.5117458830839024e-04  -2.8517305223066207e-08  2.2646516632625767e-04  -1.4180110258948864e-09  1.6778983398645409e-04  3.1807690795535308e-04  2.7261849174856248e-06  5.5883921766842467e-05  3.4278450499701215e-04  7.6523841621846058e-08  3.9316585794261361e-04  -2.7644125773455777e-09  -1.5622481225934883e-09  -1.6441667117020823e-09  -7.5142224228535075e-10  8.2984546479454617e-07  8.4951791071421296e-04  2.2657293865997554e-04  2.3306874278702824e-04  2.3423515716734298e-04  2.8908528506791574e-04  3.3339412541499912e-04  -1.8449572790780467e-09  2.5835392995185322e-04  5.0881758115134249e-04  4.5293734161423304e-04  4.0638146967196476e-05  1.9259817191453442e-06  5.5705131975939187e-07  2.2646546524777251e-04  2.2653229031549478e-04  2.7696501528602608e-04  7.6296321791399465e-06  -2.1893913867883462e-09  3.5280320137343849e-04  2.2718892524053566e-04  3.8969007976478168e-04  2.2646534180961836e-04  2.2646536238231846e-04  2.5441930401397332e-04  2.2646473785908509e-04  2.2659224337898514e-04  1.0072436618434004e-05  -1.8004120808545476e-09  -1.8966325915495807e-09  1.4853904103635338e-07  7.4694100708298423e-07  3.1972574303429584e-06  2.2636836062000089e-04  2.2644723557910663e-04  2.2646198673262910e-04  2.3791528194682776e-04  2.2275171412207304e-04  -2.4028673501743564e-09  -1.7187607437307797e-09  2.2646505214532053e-04  2.2646538748183389e-04  -2.8041482930140225e-09  2.2646526649183743e-04  -1.4110073560797066e-09  -2.6824301524569467e-09  -1.9888626536728264e-09  -7.7406586816319814e-07  1.0294473524110451e-06  3.6876559676968831e-04  1.7137003687103482e-04  2.4197369086389857e-04  2.8951964977212084e-04  2.2646406549396849e-04  2.8376012130186231e-04  1.9945504853649258e-04  2.4804624780318412e-05  1.0562644796685592e-04  -1.3967208858420304e-09  3.7764402877276281e-08  2.8684469206833029e-04  4.1597506288749986e-04  2.2706115074815777e-04  2.2833138450749995e-07  2.5089306108561836e-04  1.2706049778328656e-04  5.6567622468325159e-04  2.6481725288709536e-04  5.5973446240889036e-05  -2.6575245544100389e-09  4.4230111168627533e-04  2.9394660870088354e-04  2.2649190012310430e-04  5.1738263259741481e-04  1.7275740353026721e-06  2.4507887189761295e-04  2.2652183068328608e-04  2.2646655463130742e-04  2.2650312393468161e-04  2.2675330981079565e-04  4.1447636755780851e-04  1.0553154572767490e-03  4.0131928599076517e-07  4.3310894377658588e-04  2.7857502556276326e-04  2.4907771770598027e-06  5.4364437646126302e-04  2.6262965689590971e-06  2.2663662601617697e-04  2.7323066776202836e-04  3.9906142091660949e-04  3.9526259389468800e-04  3.4875935942431889e-04  2.4818155425365739e-04  2.8199205205458141e-08  5.9607085788508272e-04  5.2548138085402470e-04  -1.6643230509843528e-09  1.0148433515304508e-07  6.6120178288624622e-04  2.9274833995062475e-08  1.1365966897473513e-09  4.1299379715829332e-04  1.1775190789775427e-05  5.0428245554794616e-05  4.8747923493513756e-05  4.1961327284475664e-05  2.8195949259902512e-05  2.3754020560277342e-04  2.4245569071050470e-04  4.0696254145868255e-04  2.8614960333435879e-05  1.5422786280150444e-05  2.2815654196501032e-05  1.0216315556692250e-05  2.2760562347566939e-04  2.2647175362929269e-04  3.1947031059629302e-04  2.2851344038818334e-04  8.1720182829204884e-06  2.2671391446420545e-04  2.2649740465549063e-04  3.0128121105263932e-04  2.2312203017360111e-05  2.0360667739785761e-08  2.0770768647721345e-09  2.2647002618484031e-04  3.1145771443554768e-04  2.2747309122337535e-04  2.3041643436509061e-04  2.2737978591004412e-04  1.4297633538928710e-04  -1.5735557136625490e-09  2.4987239563925052e-04  2.6365987360990996e-04  2.2663524939301952e-04  2.2648948043911684e-04  2.2648475070987460e-04  3.6197280287836211e-04  1.8842464601404987e-04  -1.8625617539372130e-09  1.8868734011046303e-05  1.1318352060755978e-09  6.3171658389507363e-06  3.8000949257765071e-04  3.4545465281514691e-04  2.3021530794044618e-04  1.0606642583879058e-04  -1.6824164046947171e-09  1.7625432861588164e-04  -2.0322093418775378e-09  3.9161055930021180e-04  7.2981098425255978e-04  -1.7337440762595009e-09  3.0999401711540844e-04  3.8416659151068605e-04  7.7508817723308924e-05  3.6606951755415730e-09  2.2646548017890854e-04  2.3633700506325828e-04  4.4068191435625245e-04  1.6864585548829276e-04  2.5751011107218353e-04  4.2763283916213865e-04  4.0004913685300991e-04  2.3653805640787314e-04  -1.4857666777062234e-09  1.4556970121495687e-07  4.7024600022442232e-04  2.6951635217545029e-04  2.6349497481458471e-04  2.2664997791986240e-04  2.2650438093968004e-04  -9.9968187921241663e-10  2.2646591662105940e-04  6.8936239083172519e-09  -1.5196283087641107e-09  3.6536892719311555e-04  2.2654814289493016e-04  -1.9407643381453644e-09  2.9890666187860145e-04  -1.6296977752863792e-09  4