<?xml version="1.0"?>
<VTKFile type="UnstructuredGrid"  version="0.1"  >
<UnstructuredGrid>
<Piece  NumberOfPoints="6486" NumberOfCells="12696">
<Points>
<DataArray  type="Float64"  NumberOfComponents="3"  format="ascii">0 5 0  0 0 0  5 0 0  5 5 0  2.5 0 0  5 2.5 0  2.5 5 0  0 2.5 0  2.5 2.5 0  0 1.25 0  1.25 0 0  1.25 5 0  0 3.75 0  5 1.25 0  3.75 0 0  5 3.75 0  3.75 5 0  3.541666666666667 1.458333333333333 0  1.458333333333333 3.541666666666667 0  1.875 1.25 0  3.75 3.125 0  1.284722222222222 2.326388888888889 0  2.683189655172414 3.767959770114943 0  0.9375 0.9375 0  4.0625 4.0625 0  0.7252209595959597 3.026357323232324 0  2.763480392156863 0.9129901960784315 0  1.875 4.345238095238095 0  4.345238095238095 1.875 0  4.192708333333333 0.8072916666666664 0  0.8072916666666665 4.192708333333334 0  3.368055555555555 2.326388888888889 0  0.6837606837606839 1.738782051282051 0  3.285485245626782 4.324328415208927 0  2.551239698778062 1.693130150610969 0  1.827256944444444 2.868923611111111 0  3.464875022477093 0.6813924607921316 0  1.942880513719175 2.059558626187995 0  3.04563492063492 2.971230158730159 0  4.375 3.4375 0  2.13639445139758 0.5994472256987903 0  4.272228422619047 2.606956845238095 0  0.625 0 0  0 0.625 0  5 4.375 0  4.375 5 0  0.6400043240752655 2.384646170113389 0  1.347691225855598 1.660875475110776 0  3.515783617857982 3.723905460714006 0  3.125 0 0  1.875 0 0  0.625 5 0  4.375 0 0  5 1.875 0  0 1.875 0  0 3.125 0  1.875 5 0  5 0.625 0  0 4.375 0  3.125 5 0  5 3.125 0  1.489644181965304 0.6007147273217681 0  2.054597701149425 3.742302955665024 0  2.662520990197781 4.39452575763237 0  2.415835363784578 3.165530021913244 0  0.8679986894865213 3.602373689486522 0  1.267459753787878 2.886186079545454 0  4.099702380952381 1.365327380952381 0  1.316964285714286 4.438244047619047 0  3.7915135293491 1.959691594758709 0  2.875141124191255 2.118761176511833 0  3.00418010501169 1.397414179299248 0  0.4081721322167092 3.410647930198662 0  0.4166666666666666 0.9375 0  1.014190407998288 0.4422301359994293 0  1.383260571305984 1.162718286082048 0  4.53125 3.90625 0  4.453125 4.453125 0  3.772848162504192 4.48678272083473 0  2.8125 0.404329517041716 0  0.4538690476190476 0.4538690476190476 0  2.305461739347387 1.04517007574828 0  3.771263799175824 2.624190260297553 0  3.229617768018734 1.809956994202883 0  3.780190884441317 1.025307111692601 0  4.646337365591398 0.9375 0  4.537623451379149 0.4609485750426037 0  1.200477888421151 3.934852888421152 0  0.3536626344086022 4.0625 0  0.4623765486208503 4.539051424957397 0  4.0625 0.353662634408602 0  4.560525106689535 1.390989100915847 0  3.958439078571988 3.619844539285994 0  4.672619047619047 2.1875 0  2.1875 4.672619047619047 0  1.862808494877602 3.325947624431087 0  0.3268135998175443 2.8125 0  4.674181280189791 2.8125 0  2.283233994935276 4.138623547175983 0  0.9375 4.677879119362977 0  3.08488061581743 3.469889594488945 0  3.113427375573758 3.913955730709506 0  1.652847799068813 3.950848935641292 0  2.932652662909449 2.550542739521724 0  3.311350648514189 1.088831994878698 0  0.6770833333333333 1.295851139601139 0  0 1.5625 0  1.047214787840024 1.96818092308125 0  4.183331482095785 3.03958703580843 0  3.4375 5 0  1.071307777252521 3.246275861010018 0  0 2.1875 0  0.386576856303419 2.03125 0  1.713862716483534 2.439783116849799 0  1.775396256975935 1.665976816304977 0  2.231236976948428 1.443917394671254 0  2.373900732409897 2.086930260150635 0  4.114918237574474 2.221646174618671 0  3.661302567757379 4.099620139144836 0  3.378215938602977 2.734494874063393 0  0.9842097536079312 2.597286741306247 0  1.642795138888889 4.672619047619047 0  4.0625 5 0  2.099458800960004 2.567446522665629 0  2.616202751603346 1.297895893940078 0  5 4.6875 0  0.9937554350075428 1.512592975947215 0  2.8125 5 0  3.002695327068194 4.614055254615477 0  3.205627424097207 0.3852436382721472 0  1.678616581261621 0.927556612265266 0  3.365326698305438 3.196943731162083 0  1.554834936170314 3.120009882655813 0  3.108408340729323 0.7797187795784133 0  3.684368918102174 0.3728877601163941 0  2.716214835303553 3.39276351922003 0  2.37718583984784 3.551973401560441 0  0.3750662445374837 1.52191994866787 0  2.679073487930202 2.844160731602957 0  1.557635869750078 1.991068682985722 0  1.812595698561088 0.3839273018252746 0  2.512014721281916 0.6320641118792227 0  2.1875 0 0  2.349973454443689 0.3189980586887866 0  4.6875 3.59375 0  4.636052949022233 3.178355898044465 0  4.6875 5 0  3.345485909784306 4.665765449101383 0  0.536727472389443 3.749603193819277 0  4.349541499640203 1.116201826262156 0  2.886559045931982 1.774013674579691 0  0.6770833333333334 0.7142857142857143 0  1.5625 0 0  4.120842096538671 4.628726497527622 0  2.176157474177018 1.793470423744689 0  2.175650736889416 2.909863021769539 0  4.036616464259081 1.709699085170981 0  3.887974623473683 0.6492597046022868 0  3.4375 0 0  3.70675699592552 2.289666624772415 0  4.697265625 4.208984375 0  2.815177577303495 4.085937578239174 0  4.672619047619047 1.730733296184288 0  4.6875 0 0  5 0.3125 0  0.3125 5 0  0 4.6875 0  0.3276089296588581 2.484526834811734 0  0.712433309515852 2.065138854645612 0  0.6376435912223634 2.711473454001295 0  1.184991292170422 0.7222504400947201 0  1.31884329779317 0.3206944232264773 0  3.683609198994263 3.44428698533042 0  0.3125 0 0  0 0.3125 0  4.231797269642997 3.789141808928991 0  1.564375596050781 1.425998687184973 0  2.007640894175573 0.9032106925568466 0  0.955125897558294 2.276666098587227 0  1.43898735721003 2.611310720271951 0  1.954491523717513 4.040700257877075 0  1.752947649777421 3.652439445419346 0  2.509575750247638 4.678021307664052 0  4.687194709705067 2.499965519538002 0  1.5625 5 0  0.9375 5 0  5 2.8125 0  2.1875 5 0  5 1.5625 0  5 2.1875 0  4.0625 0 0  5 0.9375 0  2.8125 0 0  0.9375 0 0  0 0.9375 0  0 2.8125 0  0 3.4375 0  0 4.0625 0  5 3.4375 0  5 4.0625 0  4.010848109290813 3.306446973933037 0  0.3077461147713075 3.119700563473354 0  4.6796875 4.6796875 0  2.333079012424948 3.845757959077508 0  0.7829771267899832 3.317744656243421 0  1.159100632608513 3.532487125138763 0  0.799066251840424 3.893573750162776 0  1.57326499580282 4.255438189102632 0  0.7309366047093668 0.2991402264438908 0  0.3054777494262156 1.223275888123843 0  4.027475154280377 2.78211326942427 0  2.35270874745988 4.426658168476266 0  3.474236283732569 2.021154281686229 0  4.401414236174444 2.329446628171927 0  3.39403781747337 3.987097102903034 0  1.077524329801934 1.214100792470484 0  4.065611571711903 1.066085524514197 0  2.165399002716117 3.335637450367864 0  3.007639563081306 1.093684039371638 0  4.030818285732145 4.351883315180857 0  3.504115222530889 1.739284194222036 0  1.224503368215566 4.712091441401919 0  3.805634204685714 1.321528442399996 0  4.319233123479386 1.573547993867769 0  1.024007670021325 4.394604704797005 0  3.776400432023095 3.839003324979723 0  2.991819819453308 4.320567175146181 0  0.9782797534072181 2.886406017887129 0  1.763835134082104 0.6602345487826022 0  3.765182288741625 1.631193038541544 0  2.267959593989681 2.345053543725764 0  4.412434895833333 4.168294270833333 0  4.4072265625 4.7255859375 0  2.791493971314009 3.11210833271929 0  3.408766223032414 3.469500900677365 0  1.915147569444444 4.725484476461039 0  2.070301968506271 0.2605666686358055 0  2.767932250651506 1.530295992695836 0  3.280065043173439 1.364863281105779 0  4.45101570110842 2.974157152713635 0  3.521928862999512 2.96990445010402 0  2.552921961347576 4.008414007169315 0  0.2682955376854191 3.657555015841003 0  3.084522868361304 2.310593316718068 0  2.669255823227708 1.939379494498064 0  2.615884629473921 2.238841231570381 0  1.405652091971449 0.8877813821442277 0  3.25151486618811 3.68536115104276 0  1.963741569810629 2.331207252264507 0  4.017297980292599 2.486269171379106 0  3.869168920841219 4.748188103831625 0  3.596868753579134 4.77342723825056 0  2.41262958240343 2.764128584995838 0  1.266750578673391 1.404747710001619 0  1.559243962241121 2.85146506328516 0  3.128799423834764 2.052081657715259 0  0.6770833333333333 0.9778025793650794 0  0.2083333333333333 0.78125 0  1.978224492765132 3.087074731032578 0  4.051448850909273 1.969392119104174 0  1.320577095006813 4.172234780971559 0  3.214261103850064 2.534397293281829 0  0.2635729089754111 1.779234736680035 0  3.510775680035133 4.460728640112889 0  2.603081405968802 0.2432579385496493 0  2.866341315154884 0.6662105505481998 0  3.000919221100777 0.2270278495648781 0  1.298858304121393 2.05917319923859 0  2.020292299736597 1.589794568392338 0  0.7401688396476035 4.470780315741533 0  0.6721783535561408 4.733125588707921 0  3.753712482075402 2.874301339727514 0  3.557348205914658 2.491958694539413 0  1.094565978195436 0.2011034254079851 0  0.9338148378011396 0.6833568465908735 0  2.945530578578538 3.701798332963805 0  3.111707186654356 3.216904195825605 0  1.341791111822685 3.293123262233967 0  1.632939924064587 1.184895891095613 0  0.6335477978936732 3.517393619499591 0  0.5576014611130192 3.210998966942492 0  1.564344196470102 0.3630498725895039 0  2.75362450242839 4.626680495816594 0  3.571304405229554 1.192452351107437 0  3.522934592621944 0.9359134489437148 0  4.453125 3.671875 0  4.765625 3.828125 0  1.055906321410838 4.14310472322957 0  4.795146539102229 0.46875 0  4.767156345199235 0.7178596932040019 0  0.2048534608977711 4.53125 0  0.232843654800765 4.282140306795998 0  0.5393715189906129 4.270810883024032 0  4.329922600274667 0.2750645887059072 0  4.275515096738972 0.5448389557295173 0  4.477747423652795 0.7252838358993123 0  0.2002829820452772 0.46875 0  0.4352678571428572 0.6956845238095237 0  0.5007241582667088 0.2123388122114133 0  4.672890923830735 0.2500902110494848 0  0.4308009280819452 4.783624996516437 0  2.104871305393774 4.438653689007242 0  0.2274454167838428 0.2274454167838428 0  3.446466574593436 0.4359605369011901 0  2.12354112127588 1.217588426759619 0  2.309175236825235 0.7888355970690434 0  2.556178570281936 1.054299163237582 0  0.578683248637
[...]
<PointData  Scalars="f_800-3"> 
<DataArray  type="Float64"  Name="f_800-3"  format="ascii">7.3368763930847635e-03  9.9882297219468161e-03  7.0352427464071164e-03  7.0185043036697170e-03  8.5177037787456372e-03  7.0323147762514976e-03  7.2905835020152417e-03  8.7663650810912916e-03  8.5040374424634937e-03  9.5074874182610198e-03  9.2634215056466018e-03  7.2736415570791345e-03  8.0171121398931490e-03  7.0323947887474068e-03  7.7737902824624111e-03  7.0367260527632947e-03  7.2814018952835321e-03  7.8947582848577277e-03  8.1458681459768405e-03  8.8915146347835795e-03  7.7749107389678291e-03  8.8657207483409609e-03  8.0090098673318028e-03  9.4142751570571812e-03  7.5726479078627364e-03  8.4521086713884239e-03  8.3581113822308647e-03  7.6766744104086043e-03  7.4190543712132013e-03  7.5057041711547182e-03  7.7779432592977029e-03  8.0045386645833626e-03  9.2155737783227772e-03  7.6786070312670476e-03  8.4889462141397795e-03  8.5430755963094643e-03  7.9391036294166675e-03  8.8390414865481635e-03  8.1813631196641663e-03  7.4060798212335251e-03  8.7337986706869479e-03  7.4630867692530457e-03  9.6357005981600758e-03  9.8842583311192795e-03  7.0373479022765133e-03  7.2490793038608821e-03  8.8350218717370994e-03  9.1968095441233265e-03  7.8867670988433270e-03  8.1393763333362894e-03  8.8872472351750054e-03  7.3191164571554199e-03  7.4014919760443370e-03  7.0284635918019863e-03  9.1360681979468263e-03  8.3915703121875216e-03  7.2864413213209528e-03  7.0337809691568293e-03  7.6959050875631688e-03  7.2865977886608481e-03  7.0329477547625982e-03  9.1203775805029086e-03  8.0290753246302932e-03  7.6395972446385713e-03  8.3639442054584227e-03  8.1081672385562870e-03  8.5390329004340765e-03  7.5619922152588359e-03  7.6160286220020232e-03  7.7495779215612428e-03  8.2964496896317345e-03  8.2173421811645216e-03  8.2220306597606992e-03  9.6841915193684649e-03  9.4039326546720477e-03  9.1716368850940644e-03  7.3128828035847592e-03  7.3390580376855126e-03  7.5664030106172347e-03  8.3301154863356687e-03  9.6821678715356841e-03  8.6362412968894742e-03  7.7657329043498615e-03  8.0856988414487584e-03  7.7524734913391336e-03  7.2389181876352680e-03  7.3052010923973371e-03  7.9105359733594605e-03  7.8309262399589488e-03  7.5483234489589525e-03  7.5858161206749410e-03  7.2860454981213572e-03  7.6438241889002570e-03  7.2237397726285799e-03  7.4816497249482160e-03  8.2740240193416789e-03  8.5798390466636006e-03  7.2228148418081979e-03  7.7930289300852697e-03  7.4661406846308481e-03  8.1130508948357750e-03  7.9180364143972785e-03  7.9035950358735414e-03  8.2559799640875182e-03  8.0312423872088475e-03  9.4753326533608320e-03  9.3219904871958709e-03  9.0788234506365105e-03  7.5215345446973114e-03  7.2845874399421907e-03  8.3204504727921059e-03  8.9504644596004844e-03  9.0508570911391802e-03  8.7950531346405320e-03  8.9318943120731183e-03  8.6792318968569003e-03  8.5864450269625119e-03  7.5545840599260863e-03  7.7475267293043021e-03  7.9968433066592241e-03  8.7067079716024315e-03  7.4714758161612089e-03  7.2758531027932961e-03  8.6908420749381016e-03  8.4522040264203794e-03  7.0286138649659578e-03  9.3419234847945242e-03  7.2893037312438905e-03  7.5126407266409047e-03  8.0930852058857770e-03  9.0082774189169396e-03  7.9945787293022492e-03  8.3984751824338674e-03  8.1533818686269615e-03  7.8067129302983491e-03  8.2220659209443214e-03  8.1378066508115011e-03  9.3445851250088564e-03  8.3952256157567347e-03  9.0395665271731356e-03  8.9265980762255129e-03  8.5074899076812219e-03  8.7006956577746694e-03  8.6027235130726638e-03  7.2198611923479121e-03  7.2475487449616847e-03  7.1615276665398190e-03  7.4751453024390338e-03  8.0166631442749412e-03  7.4116084721290807e-03  8.2926120944050909e-03  9.5567518516673101e-03  9.0761311829621223e-03  7.4454248500778111e-03  8.7084482843218097e-03  8.5156465108301369e-03  7.5998142188145219e-03  7.6856604947644234e-03  7.9561314222442742e-03  7.8011437739482553e-03  7.2090265000239444e-03  7.8235889794893571e-03  7.2205839763486547e-03  7.2160487114979188e-03  7.0351736851565205e-03  7.3430807764463734e-03  7.5094374070827545e-03  8.7737048010210292e-03  9.0225317894659478e-03  8.6386571257800401e-03  9.3025474132974479e-03  9.2221960932993754e-03  7.8053178092074597e-03  9.8224218755177325e-03  9.9180489329149836e-03  7.4837533898691674e-03  9.0571991087793780e-03  8.8125851191926795e-03  8.8961448639899299e-03  8.6983869595599183e-03  7.8530611426445972e-03  8.0810580655813011e-03  7.4755729828879514e-03  7.2146250136726044e-03  7.2918105770779359e-03  7.2845501800771484e-03  7.0336326483268312e-03  7.2857215095929427e-03  7.0293156510746599e-03  7.0297892872484584e-03  7.5874065656308474e-03  7.0355388777111911e-03  8.3270369046809269e-03  9.4490134534861298e-03  9.6925406425030745e-03  8.5777585329233005e-03  8.2042312141718358e-03  7.8165838020484487e-03  7.0348049615702422e-03  7.0375138534197346e-03  7.6207504195863040e-03  8.3949702815557213e-03  7.2043115809682524e-03  7.9668306127958118e-03  8.2788896959423517e-03  8.1521120962363917e-03  7.9372492631965622e-03  7.7252011930512973e-03  9.5724223480795814e-03  9.5224628233335513e-03  7.6123231815031171e-03  7.6286057289591050e-03  7.9395540793271695e-03  7.3833520032853990e-03  7.8521599938186134e-03  9.3548247129629763e-03  7.5811597045037302e-03  8.2663547629686120e-03  8.2134664665210709e-03  7.5547563508192124e-03  7.9190150203860259e-03  7.4616999674365870e-03  7.7385877130890790e-03  7.4315088166492732e-03  7.6530911315116712e-03  7.7412449709010804e-03  7.6809746143571660e-03  8.5357935704938655e-03  8.9577123885344525e-03  7.7616051797404165e-03  8.6430001114888889e-03  7.3717718882471833e-03  7.3275476492877792e-03  8.3081492793850575e-03  7.9632153047961927e-03  7.4437275000430632e-03  8.7717077379983414e-03  8.3607494228505400e-03  8.0516487294239828e-03  7.3576563523539140e-03  7.9090522380589386e-03  7.8681056972051359e-03  8.0731847480450761e-03  8.1723477785926903e-03  8.4188308401115363e-03  8.4459347980409931e-03  9.1707126021598299e-03  7.9986120122068540e-03  8.8057435119045929e-03  7.6156376401286261e-03  7.4209832173590118e-03  7.4118963485834983e-03  8.5330569587911808e-03  9.2442611958555142e-03  8.5554265300036934e-03  8.1470977563775464e-03  9.6328349807110556e-03  9.7761354954748938e-03  8.4139001042904862e-03  7.5926398036258317e-03  7.7713480322862006e-03  8.0944291310159015e-03  9.1924401647906235e-03  7.5950939254965013e-03  8.4550377042562300e-03  8.2959998480081568e-03  8.2152831963140070e-03  9.0232439543205187e-03  8.8027318652563503e-03  7.5884241256567097e-03  7.4340540570037843e-03  7.7744033791859986e-03  7.8930427459121839e-03  9.3558014752205491e-03  9.4462109515444145e-03  8.0428087877183890e-03  8.1389986227458719e-03  8.2944826615859377e-03  9.0347359761810547e-03  8.1604887744969948e-03  8.3418631195709154e-03  9.0765611835426328e-03  7.5035353788175368e-03  7.8773079334855320e-03  7.9074820373622318e-03  7.3586615666560388e-03  7.1744880430580577e-03  7.7898276903896439e-03  7.1507247605600149e-03  7.1703347351189583e-03  7.5938098795401690e-03  7.6974944338865691e-03  7.7078516914040633e-03  7.4287382060392775e-03  7.4592740368846135e-03  7.3393113271341031e-03  1.0040148802307448e-02  9.8064788718389105e-03  9.7103782314070658e-03  7.2249201290381544e-03  7.4431154260622290e-03  7.6191951592092686e-03  9.8280865463834452e-03  7.9479836671335312e-03  8.7433473848154281e-03  8.6324036143856885e-03  8.4866345025864792e-03  7.8902841838396406e-03  8.0455866365510085e-03  8.9077240100060850e-03  7.9374313988998784e-03  7.7038172343842646e-03  7.1800026095715872e-03  7.1643402559518508e-03  7.1661216899444073e-03  9.2955486784800853e-03  7.9985180516230821e-03  7.9969083242398074e-03  8.1777047062706609e-03  7.4130594341002276e-03  8.1647014408745121e-03  7.8078922854190646e-03  9.2079493865037526e-03  8.2586193396203475e-03  8.1501049834181612e-03  7.4200346462488000e-03  8.9827433524434161e-03  7.3553023396787176e-03  7.7314036954511329e-03  8.9020261223919754e-03  7.1636631863364981e-03  9.4147917095311479e-03  8.7339970474357084e-03  7.5377705866795418e-03  7.6130897021745147e-03  7.6357970285823298e-03  7.3842953067303719e-03  8.5211661841354605e-03  8.6731265092301422e-03  7.1259065659240086e-03  7.3237664088373457e-03  8.9402619925718387e-03  8.0471701664601089e-03  8.0287382126472129e-03  7.6497784186831961e-03  7.8624696306244957e-03  7.1273434344665040e-03  7.8018343947439100e-03  8.3252474601654847e-03  7.4113077523358124e-03  8.6824770419660462e-03  9.3471217268779189e-03  9.5239205149442990e-03  9.5689631796592907e-03  8.0312726027197759e-03  8.2988566184606007e-03  8.8573602655625562e-03  7.1257218364691307e-03  7.1263376021824002e-03  7.3769271280626223e-03  7.4457385029196950e-03  7.1153692171976616e-03  7.6470168491304608e-03  7.4629109838513083e-03  8.3484342345473660e-03  7.3391832916873748e-03  8.1800013772066419e-03  7.7435072119957779e-03  7.7971348649529919e-03  7.9615308407616041e-03  8.3831626934060127e-03  8.4920460053431041e-03  9.5389287069545040e-03  7.4508068072149476e-03  8.2075746244002611e-03  8.7292317406934654e-03  8.5811193682740119e-03  7.3785827642134354e-03  9.1454993922967433e-03  8.9422217719857585e-03  9.0635140647783545e-03  8.8323360954971081e-03  7.6546839203831610e-03  8.6695697476260446e-03  8.1407428793358640e-03  8.3911870658465882e-03  7.9122566474554273e-03  7.7399378341690859e-03  7.2921006376534710e-03  8.4228313028683333e-03  8.5070980822133154e-03  9.2823580246314385e-03  7.6066847632442029e-03  9.1630016197483954e-03  8.9630552993853196e-03  7.4222542414657316e-03  8.2733389521504261e-03  8.0536901888621417e-03  7.2766104221098195e-03  8.6024815804726720e-03  9.6434709329375392e-03  9.0769987337650428e-03  7.6758158234856520e-03  7.4785974377059791e-03  8.3962318307764187e-03  7.4990323155607573e-03  7.4289153755438975e-03  8.4086902017395868e-03  9.2481048685866731e-03  7.1200842412740828e-03  8.5889717104319294e-03  8.5354558659777504e-03  8.6156554624025397e-03  7.3972487027092757e-03  8.2123548200087899e-03  8.4121441752084709e-03  7.8712300322003326e-03  9.4440532734428092e-03  8.9500763156940139e-03  7.2773583895379803e-03  8.6187333652369170e-03  7.9402796567106942e-03  7.7604983381858944e-03  7.5966534879422102e-03  8.6299545431826035e-03  8.7970663620781687e-03  8.0376138151283735e-03  7.8944546006481271e-03  7.8226974344386621e-03  7.6843761709392243e-03  9.1686394544770091e-03  8.4699997003433135e-03  7.3779336524965600e-03  7.5250350806145092e-03  7.5790777476770470e-03  8.5011213881247185e-03  7.8726818257280461e-03  8.3360310391129202e-03  7.7991366289717218e-03  9.1241253144536631e-03  7.3009307109197273e-03  8.1873390483525408e-03  8.7267541498044152e-03  7.8380596764681659e-03  7.2393255823554447e-03  9.1221540304725676e-03  8.0573337654506211e-03  8.3322004055161204e-03  8.8545501327870219e-03  7.3089525067774113e-03  8.2541257948427899e-03  8.9565830391482096e-03  7.5925437224088699e-03  7.2140749458043819e-03  7.3426296531470805e-03  7.2848316545335813e-03  8.8055235914868742e-03  9.3618394080550015e-03  8.6019701480915690e-03  9.3010888182609303e-03  8.1433741057451037e-03  8.1217343482538566e-03  8.7360206762316026e-03  7.4952769438585889e-03  7.5304938498433347e-03  8.6225126816762143e-03  7.5573574025136611e-03  9.1008809141885100e-03  8.1276558735952596e-03  9.4547146787817005e-03  7.6964779072217215e-03  9.0779791217607854e-03  8.9415084516334363e-03  8.6159214747384867e-03  8.4065014357430981e-03  8.4075359146078901e-03  8.1267515731392667e-03  8.0286890472571638e-03  8.3119783352295362e-03  9.4600551562842115e-03  7.2978909380397756e-03  7.5031672204009863e-03  7.4024266260722177e-03  7.5464650651152852e-03  8.8275269249902082e-03  7.2865288268807874e-03  9.0998577143568491e-03  8.7074225989112811e-03  8.8091556009136061e-03  7.7059979712163868e-03  8.4610594163723012e-03  8.2566118464096130e-03  7.5071431380842758e-03  8.1948108263898579e-03  7.0280232253106690e-03  7.2351029149886831e-03  7.7283375495725871e-03  7.6488669939671653e-03  7.9818438057889553e-03  7.4780473518934769e-03  7.6395121888658563e-03  8.0850528488723931e-03  8.5469162896734535e-03  9.5425182983908952e-03  7.0335748429135592e-03  7.1341087163475109e-03  7.3863319589604331e-03  8.8783301545135879e-03  8.0655308734031567e-03  8.1186424235894904e-03  7.8537419575146570e-03  7.3837721030914454e-03  8.8190312294014975e-03  7.7497669213817460e-03  8.8283120230279680e-03  9.0013965864332197e-03  7.6498728319372147e-03  8.1103778295716199e-03  7.8899418996816496e-03  7.3694768280752167e-03  7.3758401679807455e-03  8.6710098560356351e-03  9.0251552527780016e-03  8.4176824743493594e-03  7.2655770018381534e-03  7.6260218178697886e-03  8.0082457658974451e-03  7.9089980305529616e-03  7.8343547480329984e-03  7.7323274856406004e-03  7.8306298884990230e-03  7.4597745262099174e-03  7.4973428151180891e-03  8.5494681376444802e-03  7.0320664944297073e-03  7.5214207271839155e-03  7.5462820067168195e-03  7.6666630766980192e-03  7.1259321167596911e-03  7.2661801112922052e-03  7.1397912491052758e-03  7.0321856513884786e-03  7.6981441417693121e-03  7.4902915882099456e-03  8.9422487928839875e-03  8.9236625770144681e-03  8.0464694093244620e-03  7.5755526000738415e-03  7.3820805400782721e-03  7.9940555357896365e-03  7.1213032535967918e-03  7.2961817862772695e-03  8.3942826704654135e-03  8.3141915555892763e-03  7.2578672350554624e-03  7.6428484659455632e-03  8.1841084441285836e-03  8.9072043271564757e-03  7.6737054525811213e-03  7.5268242814832522e-03  7.3258185214440108e-03  9.6145729704060403e-03  9.7272562875402313e-03  9.4793101712045327e-03  8.0457360818914948e-03  7.1236020778829281e-03  7.9029284017392426e-03  9.2287125319993387e-03  7.1265929297705203e-03  7.5161040743855429e-03  8.1954632044531940e-03  7.9768523506276202e-03  7.7211628087639561e-03  7.1175696698602981e-03  8.2240098199557361e-03  7.5146005263884231e-03  7.1311204374457683e-03  9.2667559491855841e-03  8.4573263016579775e-03  8.2288106169982386e-03  7.3186474836460609e-03  7.1222013540129820e-03  8.1484784732035326e-03  7.9229701582609318e-03  9.3193138862355408e-03  8.1270836499441647e-03  7.0369744046100292e-03  8.4764828740392026e-03  9.0685985500155997e-03  8.6342993700416083e-03  8.0374298185841280e-03  8.7356931670058771e-03  8.4872197374081110e-03  8.7083225484653488e-03  7.3232607467918400e-03  7.7709064680691001e-03  9.6342008036756719e-03  8.6395317890293893e-03  9.1981390927032402e-03  9.2591342951808455e-03  9.1859842623679012e-03  9.3624216224575656e-03  9.3671376341916083e-03  7.1248113557790061e-03  7.0292544465484757e-03  8.4626443727711161e-03  8.5077303438004532e-03  8.3923334635339839e-03  8.5462638317951919e-03  9.9041359534558990e-03  7.8773709477597126e-03  7.2519779621541165e-03  8.7943892735666447e-03  7.3921778993807172e-03  7.3278886923190574e-03  7.2859051659183802e-03  7.9126822110154055e-03  7.4826460519222832e-03  8.7114882379309352e-03  7.5502906973724917e-03  8.2636314851554631e-03  7.5516663437277644e-03  7.4776934819524767e-03  9.9128733463828538e-03  9.9249110319455172e-03  7.5143892477425962e-03  8.4209901548911899e-03  7.2492614074773998e-03  9.7457740822565492e-03  7.7629269319366180e-03  7.1146140980869552e-03  9.1384055077478061e-03  9.1542227281908098e-03  7.9914660958330438e-03  7.5655809447170933e-03  8.3298331021042348e-03  8.7263815890453143e-03  7.2801777473245118e-03  9.6192361671809425e-03  7.3702951733657764e-03  7.5866505572422431e-03  8.8298261665902752e-03  7.4557047726406889e-03  9.5664460244632571e-03  8.2458100278081925e-03  7.7000990025792790e-03  7.8205773370438342e-03  8.0515985967633749e-03  7.6268894030494241e-03  7.9536926162122757e-03  8.1067472824309789e-03  8.7511919999025915e-03  8.0972637700890450e-03  7.6768300696158209e-03  7.2186333860127898e-03  7.1189096559878826e-03  7.7380232933185493e-03  8.7653643855101718e-03  7.3777232134116738e-03  7.1218669931328088e-03  8.6091522077098095e-03  7.2158985135029920e-03  7.2912086052345183e-03  7.2709279444569241e-03  7.4167382090595318e-03  7.3296699355434782e-03  7.2967494240590179e-03  8.2974704598949810e-03  7.3011277957935094e-03  7.0338642641456870e-03  7.8652411828188280e-03  8.0478116823488894e-03  7.0312027605496027e-03  7.0331002492550233e-03  7.0333013729228502e-03  9.0434905918598939e-03  8.8583597471184033e-03  8.6725489585322939e-03  7.2871251787402728e-03  9.4152847257772052e-03  8.9828379106452402e-03  7.6800198225005466e-03  7.9217491077699289e-03  7.3328512463306456e-03  9.7282822410720161e-03  7.6058931392403578e-03  7.0353035907831729e-03  9.3561495003482605e-03  8.2337347706893695e-03  9.9487913570590423e-03  9.7847707148974276e-03  7.2814894764783979e-03  7.0322591919530393e-03  7.0277055566248976e-03  7.0954688282045845e-03  8.4850736991643316e-03  7.2872922221452873e-03  9.6005959121525462e-03  7.0362824174250941e-03  7.0402518043018499e-03  7.0341736401733392e-03  7.7441837193858261e-03  7.6398954106360727e-03  8.3158134425424923e-03  7.3784393631235604e-03  8.2505125872494433e-03  7.3974873960746465e-03  9.2551457351954386e-03  9.3814605022462926e-03  9.4021381782660833e-03  7.3293474241174798e-03  9.4959151105096611e-03  9.0567151213704761e-03  9.5514918260518663e-03  7.8542448143773969e-03  8.7483129684121138e-03  8.7262030446881023e-03  7.7658096717756371e-03  8.4874423890273568e-03  8.4008239738685275e-03  8.3173652366209574e-03  8.6720569631867500e-03  9.4322412167252689e-03  9.6041382763778823e-03  7.3131067261520974e-03  8.0026196854910189e-03  7.9428030106916923e-03  7.4158544777179168e-03  9.2680373948883978e-03  7.1314769682122945e-03  8.4273722378161182e-03  7.8192749426167444e-03  8.7333490747761051e-03  9.1195858499239155e-03  8.3252488232706569e-03  7.8828599851811700e-03  8.2787369047105756e-03  8.9883213998031026e-03  8.8645564055564504e-03  7.7187410684453504e-03  7.2679123023113154e-03  9.1675977249617221e-03  7.4352020192900133e-03  7.3654062541622829e-03  8.5035079540476295e-03  7.9966737166064419e-03  8.9758067681465058e-03  7.9355826177697954e-03  9.2178559054526942e-03  7.3269722001260184e-03  8.2491782503887404e-03  8.1984216836729906e-03  7.7177204969331361e-03  7.7083928214757135e-03  7.6711145360969929e-03  7.5485838048347728e-03  7.5637958021213692e-03  7.6920588871924964e-03  8.5825570290309853e-03  7.8141971601024453e-03  8.1256738622705414e-03  8.4531920912546098e-03  8.0245751875369677e-03  7.9740674582532371e-03  7.4530161126249604e-03  8.2331304989439035e-03  7.8328072148347166e-03  7.7826112772289551e-03  7.7836351403881392e-03  7.8838036417487913e-03  8.3607172270677294e-03  8.3223922593608553e-03  8.1953751874500203e-03  8.6437832531817103e-03  7.4223676994108548e-03  7.5667245003289644e-03  7.5518618021756063e-03  7.6210809272253795e-03  7.6791149339856231e-03  7.5674501951398711e-03  7.5130867749981182e-03  8.1196028032101356e-03  8.2692241705605383e-03  7.3358072781224363e-03  7.1442735210448536e-03  7.4038078400573710e-03  8.2043007679264788e-03  8.5448277049638924e-03  8.8160822635541224e-03  8.0820788084424097e-03  7.6168469609978464e-03  8.9977435901731958e-03  8.4183607946636454e-03  7.4768720041975181e-03  9.2902781346482135e-03  7.7471153297910432e-03  7.5497272260990544e-03  7.5868534341046309e-03  7.1311843612715956e-03  7.4871674712565011e-03  7.3929040966069469e-03  8.5354248553802820e-03  8.2820657221297587e-03  8.3434033776392212e-03  8.7101415820654612e-03  7.8764690794411573e-03  7.8027830902859599e-03  8.0728143463973771e-03  7.2524265769613764e-03  8.5886679967396434e-03  8.3276493439301252e-03  8.5407945801295286e-03  8.6241112379521305e-03  7.5484547497301656e-03  7.3620730919860588e-03  7.6700239900143003e-03  7.3633110334020467e-03  7.6572878194583272e-03  7.2619626858869109e-03  7.3880367309304895e-03  7.7425582953252279e-03  8.1370038863636061e-03  7.2815727098207023e-03  7.5239287739220246e-03  7.8866381785791129e-03  7.5214454666284389e-03  7.6126767211535393e-03  7.6863900673329981e-03  7.4957169149396374e-03  8.49112176333