<?xml version="1.0"?>
<VTKFile type="UnstructuredGrid"  version="0.1"  >
<UnstructuredGrid>
<Piece  NumberOfPoints="6486" NumberOfCells="12696">
<Points>
<DataArray  type="Float64"  NumberOfComponents="3"  format="ascii">0 2.5 0  0 0 0  2.5 0 0  2.5 2.5 0  1.25 0 0  2.5 1.25 0  1.25 2.5 0  0 1.25 0  1.25 1.25 0  0 0.625 0  0.625 0 0  0.625 2.5 0  0 1.875 0  2.5 0.625 0  1.875 0 0  2.5 1.875 0  1.875 2.5 0  1.770833333333333 0.7291666666666666 0  0.7291666666666666 1.770833333333333 0  0.9375 0.625 0  1.875 1.5625 0  0.642361111111111 1.163194444444444 0  1.341594827586207 1.883979885057471 0  0.46875 0.46875 0  2.03125 2.03125 0  0.3626104797979798 1.513178661616162 0  1.381740196078431 0.4564950980392157 0  0.9375 2.172619047619047 0  2.172619047619047 0.9375 0  2.096354166666667 0.4036458333333332 0  0.4036458333333333 2.096354166666667 0  1.684027777777778 1.163194444444444 0  0.3418803418803419 0.8693910256410255 0  1.642742622813391 2.162164207604464 0  1.275619849389031 0.8465650753054845 0  0.9136284722222221 1.434461805555556 0  1.732437511238546 0.3406962303960658 0  0.9714402568595876 1.029779313093998 0  1.52281746031746 1.485615079365079 0  2.1875 1.71875 0  1.06819722569879 0.2997236128493951 0  2.136114211309524 1.303478422619048 0  0.3125 0 0  0 0.3125 0  2.5 2.1875 0  2.1875 2.5 0  0.3200021620376328 1.192323085056694 0  0.6738456129277992 0.8304377375553881 0  1.757891808928991 1.861952730357003 0  1.5625 0 0  0.9375 0 0  0.3125 2.5 0  2.1875 0 0  2.5 0.9375 0  0 0.9375 0  0 1.5625 0  0.9375 2.5 0  2.5 0.3125 0  0 2.1875 0  1.5625 2.5 0  2.5 1.5625 0  0.7448220909826522 0.3003573636608841 0  1.027298850574712 1.871151477832512 0  1.331260495098891 2.197262878816185 0  1.207917681892289 1.582765010956622 0  0.4339993447432606 1.801186844743261 0  0.6337298768939392 1.443093039772727 0  2.049851190476191 0.6826636904761904 0  0.6584821428571428 2.219122023809524 0  1.89575676467455 0.9798457973793544 0  1.437570562095628 1.059380588255917 0  1.502090052505845 0.6987070896496241 0  0.2040860661083546 1.705323965099331 0  0.2083333333333333 0.46875 0  0.5070952039991439 0.2211150679997147 0  0.6916302856529919 0.5813591430410241 0  2.265625 1.953125 0  2.2265625 2.2265625 0  1.886424081252096 2.243391360417365 0  1.40625 0.202164758520858 0  0.2269345238095238 0.2269345238095238 0  1.152730869673694 0.5225850378741401 0  1.885631899587912 1.312095130148776 0  1.614808884009367 0.9049784971014416 0  1.890095442220658 0.5126535558463003 0  2.323168682795699 0.46875 0  2.268811725689575 0.2304742875213018 0  0.6002389442105756 1.967426444210576 0  0.1768313172043011 2.03125 0  0.2311882743104251 2.269525712478698 0  2.03125 0.176831317204301 0  2.280262553344767 0.6954945504579233 0  1.979219539285994 1.809922269642997 0  2.336309523809524 1.09375 0  1.09375 2.336309523809524 0  0.9314042474388009 1.662973812215543 0  0.1634067999087722 1.40625 0  2.337090640094896 1.40625 0  1.141616997467638 2.069311773587991 0  0.46875 2.338939559681489 0  1.542440307908715 1.734944797244472 0  1.556713687786879 1.956977865354753 0  0.8264238995344066 1.975424467820646 0  1.466326331454725 1.275271369760862 0  1.655675324257095 0.5444159974393489 0  0.3385416666666666 0.6479255698005697 0  0 0.78125 0  0.5236073939200119 0.984090461540625 0  2.091665741047893 1.519793517904215 0  1.71875 2.5 0  0.5356538886262603 1.623137930505009 0  0 1.09375 0  0.1932884281517095 1.015625 0  0.8569313582417669 1.2198915584249 0  0.8876981284879677 0.8329884081524883 0  1.115618488474214 0.7219586973356271 0  1.186950366204949 1.043465130075318 0  2.057459118787237 1.110823087309335 0  1.830651283878689 2.049810069572418 0  1.689107969301489 1.367247437031697 0  0.4921048768039656 1.298643370653124 0  0.8213975694444444 2.336309523809524 0  2.03125 2.5 0  1.049729400480002 1.283723261332814 0  1.308101375801673 0.6489479469700392 0  2.5 2.34375 0  0.4968777175037714 0.7562964879736076 0  1.40625 2.5 0  1.501347663534097 2.307027627307738 0  1.602813712048603 0.1926218191360736 0  0.8393082906308107 0.463778306132633 0  1.682663349152719 1.598471865581041 0  0.7774174680851571 1.560004941327907 0  1.554204170364662 0.3898593897892066 0  1.842184459051087 0.186443880058197 0  1.358107417651776 1.696381759610015 0  1.18859291992392 1.77598670078022 0  0.1875331222687418 0.7609599743339348 0  1.339536743965101 1.422080365801479 0  0.7788179348750389 0.9955343414928611 0  0.9062978492805438 0.1919636509126373 0  1.256007360640958 0.3160320559396114 0  1.09375 0 0  1.174986727221844 0.1594990293443933 0  2.34375 1.796875 0  2.318026474511116 1.589177949022232 0  2.34375 2.5 0  1.672742954892153 2.332882724550692 0  0.2683637361947215 1.874801596909639 0  2.174770749820102 0.5581009131310781 0  1.443279522965991 0.8870068372898454 0  0.3385416666666667 0.3571428571428572 0  0.78125 0 0  2.060421048269335 2.314363248763811 0  1.088078737088509 0.8967352118723447 0  1.087825368444708 1.454931510884769 0  2.018308232129541 0.8548495425854904 0  1.943987311736842 0.3246298523011434 0  1.71875 0 0  1.85337849796276 1.144833312386208 0  2.3486328125 2.1044921875 0  1.407588788651747 2.042968789119587 0  2.336309523809524 0.865366648092144 0  2.34375 0 0  2.5 0.15625 0  0.15625 2.5 0  0 2.34375 0  0.1638044648294291 1.242263417405867 0  0.356216654757926 1.032569427322806 0  0.3188217956111817 1.355736727000647 0  0.5924956460852111 0.36112522004736 0  0.6594216488965849 0.1603472116132387 0  1.841804599497131 1.72214349266521 0  0.15625 0 0  0 0.15625 0  2.115898634821499 1.894570904464496 0  0.7821877980253907 0.7129993435924866 0  1.003820447087786 0.4516053462784233 0  0.477562948779147 1.138333049293613 0  0.719493678605015 1.305655360135975 0  0.9772457618587566 2.020350128938537 0  0.8764738248887107 1.826219722709673 0  1.254787875123819 2.339010653832026 0  2.343597354852534 1.249982759769001 0  0.78125 2.5 0  0.46875 2.5 0  2.5 1.40625 0  1.09375 2.5 0  2.5 0.78125 0  2.5 1.09375 0  2.03125 0 0  2.5 0.46875 0  1.40625 0 0  0.46875 0 0  0 0.46875 0  0 1.40625 0  0 1.71875 0  0 2.03125 0  2.5 1.71875 0  2.5 2.03125 0  2.005424054645407 1.653223486966518 0  0.1538730573856537 1.559850281736677 0  2.33984375 2.33984375 0  1.166539506212474 1.922878979538754 0  0.3914885633949916 1.65887232812171 0  0.5795503163042564 1.766243562569382 0  0.399533125920212 1.946786875081388 0  0.7866324979014098 2.127719094551316 0  0.3654683023546834 0.1495701132219454 0  0.1527388747131078 0.6116379440619215 0  2.013737577140188 1.391056634712135 0  1.17635437372994 2.213329084238133 0  1.737118141866284 1.010577140843115 0  2.200707118087222 1.164723314085963 0  1.697018908736685 1.993548551451517 0  0.5387621649009668 0.6070503962352419 0  2.032805785855952 0.5330427622570983 0  1.082699501358059 1.667818725183932 0  1.503819781540653 0.5468420196858188 0  2.015409142866072 2.175941657590429 0  1.752057611265444 0.869642097111018 0  0.612251684107783 2.356045720700959 0  1.902817102342857 0.6607642211999982 0  2.159616561739693 0.7867739969338844 0  0.5120038350106624 2.197302352398502 0  1.888200216011548 1.919501662489862 0  1.495909909726654 2.16028358757309 0  0.489139876703609 1.443203008943564 0  0.8819175670410521 0.3301172743913011 0  1.882591144370812 0.8155965192707721 0  1.133979796994841 1.172526771862882 0  2.206217447916667 2.084147135416667 0  2.20361328125 2.36279296875 0  1.395746985657004 1.556054166359645 0  1.704383111516207 1.734750450338683 0  0.9575737847222222 2.36274223823052 0  1.035150984253136 0.1302833343179028 0  1.383966125325753 0.7651479963479179 0  1.64003252158672 0.6824316405528895 0  2.22550785055421 1.487078576356817 0  1.760964431499756 1.48495222505201 0  1.276460980673788 2.004207003584658 0  0.1341477688427096 1.828777507920502 0  1.542261434180652 1.155296658359034 0  1.334627911613854 0.9696897472490321 0  1.30794231473696 1.119420615785191 0  0.7028260459857245 0.4438906910721139 0  1.625757433094055 1.84268057552138 0  0.9818707849053143 1.165603626132254 0  2.0086489901463 1.243134585689553 0  1.934584460420609 2.374094051915812 0  1.798434376789567 2.38671361912528 0  1.206314791201715 1.382064292497919 0  0.6333752893366955 0.7023738550008095 0  0.7796219811205605 1.42573253164258 0  1.564399711917382 1.026040828857629 0  0.3385416666666666 0.4889012896825397 0  0.1041666666666667 0.390625 0  0.989112246382566 1.543537365516289 0  2.025724425454636 0.9846960595520872 0  0.6602885475034063 2.086117390485779 0  1.607130551925032 1.267198646640915 0  0.1317864544877056 0.8896173683400176 0  1.755387840017567 2.230364320056445 0  1.301540702984401 0.1216289692748247 0  1.433170657577442 0.3331052752740999 0  1.500459610550388 0.113513924782439 0  0.6494291520606965 1.029586599619295 0  1.010146149868299 0.794897284196169 0  0.3700844198238017 2.235390157870766 0  0.3360891767780704 2.36656279435396 0  1.876856241037701 1.437150669863757 0  1.778674102957329 1.245979347269706 0  0.5472829890977179 0.1005517127039925 0  0.4669074189005698 0.3416784232954367 0  1.472765289289269 1.850899166481903 0  1.555853593327178 1.608452097912802 0  0.6708955559113426 1.646561631116984 0  0.8164699620322933 0.5924479455478063 0  0.3167738989468366 1.758696809749795 0  0.2788007305565096 1.605499483471246 0  0.7821720982350511 0.181524936294752 0  1.376812251214195 2.313340247908297 0  1.785652202614777 0.5962261755537186 0  1.761467296310972 0.4679567244718574 0  2.2265625 1.8359375 0  2.3828125 1.9140625 0  0.5279531607054191 2.071552361614785 0  2.397573269551114 0.234375 0  2.383578172599618 0.3589298466020009 0  0.1024267304488855 2.265625 0  0.1164218274003825 2.141070153397999 0  0.2696857594953064 2.135405441512016 0  2.164961300137334 0.1375322943529536 0  2.137757548369486 0.2724194778647587 0  2.238873711826398 0.3626419179496562 0  0.1001414910226386 0.234375 0  0.2176339285714286 0.3478422619047619 0  0.2503620791333544 0.1061694061057066 0  2.336445461915368 0.1250451055247424 0  0.2154004640409726 2.3918124
[...]
<PointData  Scalars="f_124-3"> 
<DataArray  type="Float64"  Name="f_124-3"  format="ascii">3.0149585865800563e-04  8.0649035621568253e-06  1.2772067878340654e-09  1.8196873420705091e-06  3.4846333995772184e-06  1.0451422088809013e-06  3.0423210505745480e-04  2.7399857203178019e-02  1.0062033287023627e-02  2.9060994173292786e-02  8.6868046350709962e-06  3.4787605928395719e-04  9.3378439948150916e-03  1.1289547592903947e-09  2.1611064657674030e-07  8.6803206499384299e-06  8.3794548225439388e-05  8.7894164132009215e-06  1.3329215610721944e-02  1.6809145094476331e-03  1.1394382400570853e-03  2.6702081763410990e-02  6.7609998992237772e-03  9.0257052594346753e-03  3.3587798808525305e-04  2.2355559172968067e-02  6.8402261404871538e-06  2.6033294234146529e-03  2.0570691380976602e-06  3.6217299508624086e-08  3.8244294275574936e-03  8.8460330058496195e-04  2.8925928672623624e-02  1.2109960283658453e-03  1.2587921686474253e-03  2.1769795256441935e-02  4.8771164349402413e-07  1.3040793077252456e-02  5.9495650643594236e-03  1.3455741776724237e-04  9.5931804293393391e-06  6.2474814327439205e-05  9.7177514706063094e-06  1.0498834600605290e-02  6.3041874076213320e-06  1.5507111055518042e-05  2.7778040325307507e-02  1.7987274034516106e-02  2.0447376161785383e-03  1.1326025101101032e-06  6.3358967205367908e-06  2.8759394914857218e-04  1.9600374074228803e-08  4.6396884784059540e-08  2.8927373846912706e-02  2.0963150070895335e-02  3.1591104623306690e-04  8.0049407474814765e-10  2.2428935643972786e-03  2.0105642814136944e-04  5.5122384637627267e-06  8.4576218705861958e-05  9.0571590166857105e-03  1.7797207191149419e-03  1.4208949373395442e-02  1.2712698223706438e-02  2.3600596102786548e-02  3.3105990106504436e-07  1.9692342344102259e-03  4.7609720525056392e-05  2.0393948640808446e-03  6.2258842994587980e-05  1.6160834063665371e-02  2.1277288149735545e-02  1.7081470800831225e-04  5.2832734787459663e-03  6.4740368345924068e-05  4.5502734657649371e-05  3.1085880285480375e-04  2.2053990940619698e-06  3.2542291062035915e-03  8.9486777100846457e-05  4.7687946772617679e-04  2.3206206608564464e-04  2.6946122428173509e-07  4.0002026817462360e-09  7.7083625914292972e-09  7.1131588368847408e-03  5.0224286384035139e-03  1.3573606324619502e-03  6.4155127328224227e-08  3.0321993344916163e-08  6.4333518984414028e-04  1.6528476140653550e-06  9.1348643369076421e-04  1.6009962724274310e-02  2.5090316451016087e-02  1.4542884313123822e-05  3.9978500834471492e-03  9.3402447451317874e-04  5.6747046613778752e-03  3.3538436450523002e-03  6.8461205415141840e-03  4.6277981472074734e-03  2.3717444022190203e-06  2.6251743851414454e-02  2.9103935317837122e-02  2.7452328711668077e-02  2.0400856699278450e-04  1.4657353487896880e-04  1.8687672074220788e-02  2.8460245255155916e-02  2.8749329343642740e-02  2.2634468105343933e-02  8.4639017806619962e-03  1.1866753071255968e-03  6.5027216041558117e-03  3.5046317322852601e-05  8.7499667077645398e-04  2.0568109953940992e-03  2.6413099372117173e-02  9.6077211939270106e-04  4.1051426387775372e-05  1.7333893339858301e-02  1.3790645556656549e-04  3.7148087270367595e-06  2.3511751187187985e-02  2.5603032473538130e-04  7.4766083024975255e-04  9.4868530125549887e-07  5.6680310272205314e-04  3.2731160613163339e-03  1.9824543106781074e-02  1.5573773372561211e-06  2.2998007075170507e-07  9.8085230487188670e-03  1.0789608224987000e-02  2.9378276915325612e-02  1.0187204234732700e-02  1.9756958728273943e-02  8.0194074002894671e-06  4.5524180998075556e-06  4.9199192577158436e-06  4.4330134828290243e-06  3.4588822121982607e-05  3.3482466568083541e-05  5.3963932501531609e-06  4.4461690358028590e-04  1.0004853462715294e-02  2.3906955028780624e-08  6.1046859990341988e-04  9.2344734703111719e-03  7.5342637397767147e-06  8.7781818513610804e-05  4.8468704164312502e-03  1.7799647673984120e-02  3.9375005594450455e-06  1.1849805594682458e-07  5.4710348838322859e-07  2.3908535556210709e-04  2.5605231680144788e-05  3.3452493474283784e-03  1.1730801598937766e-07  5.2853240469454831e-09  1.0754522312321333e-09  2.9743625103408609e-04  7.6043562598021109e-04  2.7364483054544211e-02  2.8741688191170192e-02  2.5806809899620035e-02  1.0680252566255711e-03  1.3993703696125389e-05  1.4857159240235203e-03  7.2771636866590435e-06  5.9620823926580095e-04  2.2802018081641921e-04  7.3050651791243060e-03  1.2813478295360198e-04  2.8054195065678175e-02  2.5353853840257318e-02  5.4909020202686407e-03  1.1102839724152236e-02  8.5397652271188972e-04  5.1668565303607735e-06  3.2509070850984199e-04  2.9921462123241394e-04  2.8050137193469491e-06  3.1224202713935382e-04  6.3332682286801036e-09  2.5816116187248169e-07  7.3742303615865731e-08  6.7241611819714272e-10  2.0429848474909017e-06  9.7700508481100798e-06  2.0901547042933087e-02  2.5154472323279903e-02  1.5486936363832571e-02  5.2269134446676149e-03  7.9220932160746802e-06  7.9046580464770002e-06  5.0930374856108477e-04  2.1023664740194643e-02  1.2184630821137584e-05  7.1267199375408194e-03  1.8101685818961162e-02  1.3632429257984626e-02  7.7392388816492101e-03  3.3877358014093991e-03  9.5091634302229639e-05  2.9569608074720657e-02  2.5744084305482127e-04  1.9601148189003657e-03  2.2234245725705432e-04  1.1938789058232439e-05  1.9276663669335126e-03  1.3720459590395303e-02  8.6720838720786929e-08  1.4772284199515290e-02  7.9262466990018183e-06  2.1140769574355282e-04  5.1889879172422557e-05  8.2199220290844006e-04  1.0241548067252119e-06  3.6363397121437174e-07  2.2784532150939194e-03  9.6206992554898898e-04  1.6839551227903074e-03  2.3864690842214389e-02  5.2064429672938852e-05  8.2598213979467335e-06  1.1904167750158132e-02  8.3272421086849266e-05  2.6013720316467992e-05  9.3690254681092124e-03  2.9475498609536177e-03  7.6448149966126030e-04  5.7074183735326264e-06  2.9999970017414231e-04  1.4849184018275860e-05  6.1456018177173582e-05  1.9552072358488999e-03  4.8242119422001895e-03  1.1679331056345551e-02  1.9149607917972914e-03  2.0366679703221939e-03  5.2366293813366407e-03  1.4000350795645208e-03  3.6543512455503788e-03  1.7263684646091963e-02  1.4001434754069893e-04  1.2802553132878309e-04  2.0777181484845405e-04  1.3965281037066278e-02  1.3915700992511283e-02  2.3279386518221298e-02  8.0724390119167372e-04  1.9269566573275252e-02  1.5797347343513013e-02  1.8860687475468180e-02  1.4683811258468855e-05  4.0651852850627623e-03  2.2758071919113903e-03  2.9054802364606808e-02  6.0968447015607909e-04  3.0642176746856408e-06  2.3809665145997201e-06  1.4778226795962640e-06  2.5336517156632574e-02  3.9251555728460463e-03  1.7938028335552038e-03  7.0640366624119110e-04  8.0682261772329939e-04  7.4215175520150986e-04  1.1688195225243671e-05  2.5183566199594334e-03  5.6613052314777711e-03  5.5314659162459985e-03  1.7413015515140025e-02  2.8560137517077526e-03  1.4284933253897200e-02  1.9800249800138302e-02  1.1248805274832611e-05  8.5485354261320787e-04  1.4032822721794363e-06  5.6210482518664140e-07  1.0383436184456601e-04  2.3238310640923090e-05  4.4755624983650304e-03  2.0395269907640406e-09  2.2590302327778973e-09  1.4236231547989054e-03  3.0689506639734175e-03  3.1266472224814085e-03  2.1828277523063774e-08  2.5878593679153478e-08  1.0348285354011616e-08  4.6241242659138711e-03  1.3168562746327300e-02  3.9338025111777771e-05  4.4524785651245205e-09  5.8394257757980132e-04  1.9480365564908339e-03  7.6911890311409241e-05  5.1638615652461262e-07  5.6993157648985930e-04  1.5356645259523435e-05  3.6590489241895355e-05  6.3883474213135144e-03  3.4824647858654064e-03  2.3805946747556921e-02  7.4737034131484165e-03  1.3666149615487244e-07  3.6774404208986650e-09  1.8047092242394610e-08  1.3310259379722053e-05  4.6108666083884402e-03  9.0363722898024173e-03  9.4027034970393004e-03  1.6174117652786426e-04  1.2041040453028767e-04  4.4238782792795214e-03  2.5541622179121591e-07  2.7191126570677845e-02  1.5908322888185698e-02  1.2377851786661627e-02  8.3131619567512062e-08  7.1109651125550707e-06  3.8641433311171486e-06  2.8442773616614023e-03  2.8166296193118695e-02  2.7031353501996891e-07  2.9305501764228251e-02  2.6454751810538468e-02  3.2853531043034812e-04  5.1307772867292996e-04  9.8010452751069091e-08  5.0672099195086997e-04  2.3877381412639481e-02  2.6490857717420314e-02  8.1792253516304116e-06  2.2947701067130343e-05  1.8816361480464897e-02  7.9225372263289377e-07  5.0615457294202169e-05  4.5931120085830976e-04  3.3600579059180707e-07  1.3980195701171566e-05  2.0416836530702700e-03  4.0255431419200238e-03  5.9974503536387876e-04  2.1571064494646665e-02  2.8842485068679022e-02  1.8749904987757093e-02  2.6859792551711129e-02  1.0091351696047404e-06  1.8467458452244595e-02  2.7974387962147840e-02  3.7175604200904684e-06  1.1758329648934277e-06  4.3700888413412752e-04  5.4289246436711334e-04  4.2677772874451466e-06  5.3063829952098543e-04  1.0466867056152557e-04  2.4645537191609601e-05  3.6682464184580664e-05  1.4170848477415542e-06  1.1460451843657024e-03  4.4586927110859811e-03  8.0098211458814583e-03  8.2149841024448927e-03  2.3528145050626385e-02  1.2545917133244175e-03  1.1322393134301849e-04  7.7438490070790593e-03  1.2040463556130313e-02  3.4257666684726416e-03  3.5130890874809846e-04  2.3991670347958315e-02  4.6842595000183129e-03  1.2167815504908914e-02  8.6190813235859382e-03  1.8235046819448144e-06  2.3814547865263373e-02  1.1648560897537271e-02  1.6659273089904482e-02  6.3717866328247032e-03  3.3934640843909722e-03  7.4541336620626055e-07  2.0168126694528044e-02  1.1313198279163702e-05  1.3419993628249424e-04  1.8706197995733275e-03  2.9105291010164243e-02  1.3777439586765035e-02  1.3616923711788889e-04  7.1443250666777180e-03  8.3189426895371070e-07  4.9385181343431247e-05  1.9797346702535801e-02  2.3625947691365220e-02  2.8810362289096208e-02  6.0679762514068711e-05  9.2645374142206025e-06  1.2133717503895889e-02  4.4473354915712690e-05  4.0569862979073477e-04  2.0576118653684746e-02  2.3527471110936220e-02  2.3899475470873184e-09  2.7724198910532787e-04  6.6974319062846688e-04  1.9399604257960858e-03  1.5481039277340597e-08  1.5974591051849028e-02  2.1121460789518751e-02  1.0678144240470547e-03  2.1595686015839312e-02  2.7510496490208206e-02  3.1778887932862825e-04  1.3586724687607986e-02  4.8159460628381008e-03  1.1883039093357965e-03  9.8528750671024500e-04  2.5249174037802021e-02  2.7405170816444894e-02  1.0523376391898031e-02  2.2124102242500371e-03  1.4331419803248725e-03  6.3505911657730932e-04  8.0737161597430861e-06  1.5169414012183777e-02  5.1548578991385816e-04  1.2183543091186988e-03  5.8951038459256230e-08  3.6054959013737828e-06  6.0141303647191537e-03  2.1831471843117729e-06  2.6079819159075543e-03  8.2041318231133041e-06  1.1571052266804008e-08  1.5094664875373195e-02  8.3694441112207429e-03  2.8776517389775858e-07  1.1025172809270512e-05  1.9809975793430620e-02  4.2904292955975639e-03  8.6703487156210540e-05  1.2595746337216896e-05  1.0517457346872281e-08  1.3168084106994334e-02  2.8443842306137529e-02  1.2664006071430685e-03  2.8724890675015842e-05  3.8260188545445584e-07  3.0184659717141999e-04  1.9280249927712072e-03  2.6390639996892951e-02  1.6556878871007492e-02  2.9157396139938816e-02  7.3887368788839412e-03  9.1833236798622421e-06  2.6985465436942999e-02  3.7772409254146648e-08  4.9000759806595511e-08  2.5399849603149890e-02  1.3959491252847867e-03  2.8508891510594575e-02  2.4685849564842835e-06  2.9179526282003310e-02  1.1931475956289816e-07  3.1629633670529281e-04  9.7324546484704039e-04  5.2603517431205993e-06  4.1188078928295355e-06  2.9669756579772044e-06  9.3641304105042608e-03  8.0030443270275465e-03  1.1723680394145845e-02  2.9331629995166865e-05  2.8885293821421810e-04  1.6882256040633424e-04  5.6767495622202188e-05  1.3325571286952173e-03  2.7341087419692846e-02  1.7474526026751126e-04  1.9809657483701583e-03  5.6450318656735225e-06  2.5605766110249242e-02  3.1665160799210293e-03  2.1676486302061641e-02  2.9980016875095193e-06  2.5412184294964076e-04  5.5369001961634112e-04  1.8074433249425613e-08  2.3562312215732460e-05  2.4654721556445209e-04  5.5837581966864996e-04  8.7358238307852030e-03  1.7207933218473789e-04  2.6438190429309231e-07  9.6345565271743544e-04  8.0581617388264595e-03  1.0075505569478700e-05  7.1814999647305743e-10  1.6662702609843220e-09  5.3329349840400817e-04  6.3820929629903941e-06  1.1329564657680298e-02  1.2913657626594662e-02  7.3940539456484881e-05  7.1057318945158134e-05  3.3865659302478458e-05  2.8052409397298643e-03  4.6640726012460535e-04  2.8387765348814757e-02  9.5112362339204234e-05  1.2307502779943356e-02  6.5926541391937606e-03  4.8948298832126994e-04  5.5855863388273917e-04  4.8913067185548736e-06  2.2393350479752978e-05  6.6938476989607766e-03  7.0888331975828743e-08  2.1831049416772179e-03  9.4019506990069349e-03  3.6711731365211998e-04  1.3989663353519878e-04  1.0306826331493268e-03  5.2185337124841889e-03  2.1076187422624558e-04  7.6991413539027766e-08  3.8280787190227710e-06  2.5980270010613098e-09  4.1168361877666446e-06  8.9992414442166144e-07  1.4621013971062884e-05  1.6358154547562381e-05  4.9600905500505238e-05  1.6764185136521657e-05  1.2178266179274210e-09  2.7729631731094957e-03  3.4236614280221290e-08  2.8381115629298303e-02  2.8323434707196862e-02  3.6756255692580630e-04  7.5744805832280815e-04  2.3108501490695367e-04  1.3221823194551885e-03  1.2281324633026180e-05  4.2566127005744801e-05  1.0397703642001377e-03  1.2442862694551275e-03  4.8161505517437959e-09  2.2923388250291536e-03  1.3700765433932536e-02  1.2679691118840157e-04  7.5069240288669022e-04  1.1677701115346050e-03  1.0126238542469212e-08  7.3241984745173079e-03  1.7198667030379266e-02  8.2060415253782399e-03  9.0717844225026399e-03  1.9953306926015500e-09  2.1944608267164653e-03  2.9035232705443361e-02  4.0220473316168057e-09  9.3222475516559840e-04  1.4418799591862540e-06  3.8723879608215982e-06  2.2610425300798793e-03  7.1196336598642589e-06  7.1030856099391897e-03  3.4122432765016736e-04  1.4953595760111300e-05  2.9258682810490846e-02  2.1707621962887218e-02  1.1305621429791954e-02  1.1900721526172659e-05  6.3832049405225755e-08  1.2903571461750946e-02  2.5942163984344693e-03  2.7108389999511240e-05  5.0616918684830965e-05  8.4173223018418883e-06  1.0817705111290097e-02  2.8902984352119569e-02  2.5162147276302272e-02  4.1044950107741261e-03  2.6835349950612767e-02  4.1447951437817900e-03  6.3738458781381122e-05  3.5885907454604935e-05  2.5144420650277840e-05  9.9130585988930001e-04  2.5839643541796044e-02  4.5991712517714768e-04  9.3579580254055548e-06  4.6730443327164165e-05  3.8815388853490774e-03  5.8817395077098006e-04  5.4722503201398990e-07  1.0819917242786802e-07  1.2830761253886302e-02  1.9605728840139801e-02  2.9505853027217859e-03  2.4270347668623540e-02  1.0780509205239212e-02  2.0869068607312323e-03  4.2840843047495030e-06  5.7027266880642490e-06  1.2148009665538866e-04  9.6406090973439392e-09  4.8527861456342870e-05  5.0624567342465038e-03  1.1778093603533671e-04  2.9482647681553149e-03  3.6139703217573865e-04  1.9186324035172145e-04  1.2034315552031740e-03  8.7273557420466485e-04  7.8345692878746094e-06  1.2692912978831792e-05  2.6464044744901140e-04  2.7017783946386784e-06  2.1892618478018931e-05  1.1479484420238331e-03  3.3356446586751609e-03  1.2147431898520997e-09  8.0035304740930183e-03  1.2392172649739469e-02  1.5310567896250168e-04  3.4754446859793360e-04  1.7918133389715110e-02  2.2586141484880252e-05  6.3388123578793164e-05  1.5759649822149597e-05  1.4796541074662427e-08  5.9530398910240861e-08  6.7315770196768740e-06  1.4855597575470223e-05  2.3651566990050509e-02  1.6827122613862159e-02  2.8673144469786331e-03  4.9207460351767341e-03  9.9352630075803736e-03  4.0420637330756883e-04  5.1662765975597301e-07  4.8909940721345233e-03  1.9041286438354583e-02  7.8982497494752141e-03  4.7643690005586329e-04  9.1117003881085088e-06  2.1658549228880857e-06  3.3537265642563244e-03  2.7392778401991273e-02  3.9524862219909244e-04  1.0511177220055356e-05  4.1649349641491353e-06  8.8332344450372346e-06  3.2619769354727985e-04  2.6674802654030828e-05  4.6428147982062462e-04  3.0819282404000799e-04  2.7386080439506554e-04  1.8445686786163842e-02  3.4105177801482795e-04  7.1804330793062585e-06  3.3246280934599430e-07  8.0879593916494069e-07  5.3578919083768624e-07  1.7101082485509505e-06  4.0999573275310325e-06  2.8738831621716327e-02  2.8004881148715376e-02  2.6540627887144369e-02  3.0990641545105191e-04  2.9127244815634955e-02  6.9316843790923565e-06  1.3026262412378896e-07  7.3035046974357859e-03  2.9023956118266736e-04  8.6366377482295770e-06  1.2946351201492427e-03  8.9753317103390841e-10  9.3152830834843675e-06  1.5933171483957772e-06  4.6848881397385167e-03  1.5734954503607863e-02  1.1219563234664921e-04  4.8636994525156904e-06  2.6207855014304983e-06  2.8974650289521700e-06  2.3085125487498494e-02  2.2083142800290878e-04  2.6438962092321088e-02  8.7185756076990681e-06  7.4380318182388156e-06  7.1653301291388389e-10  2.8829363023788708e-06  1.9593369843971600e-03  1.6754221646316184e-02  5.0057843759006792e-04  2.7061024811627390e-05  4.9540910261842584e-04  7.3511888930025953e-03  1.8810521947572236e-02  1.2251173595630485e-02  8.0436512183407801e-05  1.0980841120812662e-05  1.6056863152406915e-02  2.8752683073893493e-02  5.5935478891219574e-03  2.4683459926025574e-02  2.0903972402724785e-04  3.9651314952521242e-03  2.3560357032148226e-02  2.1215507507116094e-02  1.9132237446092045e-02  2.6318519029986939e-02  2.9548935657167215e-02  2.6372333271043928e-02  4.6862670624532089e-06  4.2534244590510945e-03  7.2057999882339978e-03  2.8104202496737298e-05  1.8616182860771498e-02  6.3332098333885562e-06  2.1886022276655231e-02  4.5620870632329495e-03  1.4452688939483462e-02  2.8918183049933842e-02  9.1143938263741550e-03  6.1688145373304960e-03  6.8360564561926671e-06  2.3551262630981413e-02  1.9809398914132127e-02  1.5007137327439868e-07  1.2496099248333896e-06  2.6135755953769574e-02  9.8715892284539363e-07  1.0126399469825802e-07  2.1929999230143889e-02  4.9086977006919559e-04  3.2238492900612164e-03  1.2097325911051119e-03  3.5488179781464515e-03  6.8566796871705172e-05  1.6717535405266725e-02  1.4729190619715178e-02  1.6408012379597469e-03  4.5177538374635383e-04  2.6619014349277411e-04  2.0937162421069347e-04  1.3944604044814130e-04  2.9807696336558065e-03  2.5187049839584180e-02  4.0949520336214162e-03  1.3228821227105982e-02  5.7512695215058193e-04  1.0182987734252448e-02  8.9059737183541862e-03  6.0842955692450083e-04  1.1105184440701598e-03  2.3283926188632055e-06  6.2558270819869926e-07  4.4874312961752007e-03  5.5251549248704285e-03  2.0290837900243015e-02  1.9037727408840299e-02  1.5485329274771682e-02  6.1193271980712824e-03  1.8923510170245503e-08  1.4758396653843707e-03  1.2964709661160670e-03  2.0401631559245864e-03  2.5237441446162513e-03  1.6051252629288794e-03  6.1132741034239586e-04  4.3675562425051747e-03  1.9219439582333645e-06  6.5215659865951666e-05  3.5431221704415127e-08  5.0029111098080325e-05  1.3640425590801825e-02  2.3610784821875442e-02  2.7639811557817594e-02  2.8504154831302045e-03  8.1856172784210172e-08  7.8866332617136305e-03  2.8077389831431019e-06  3.6408870258189093e-04  2.6591275546744540e-02  1.6684230693763872e-07  2.5528469805485572e-04  2.8235384812055550e-04  1.6277025674901333e-05  2.7599599028116972e-07  4.4781071574759215e-04  2.3995886905170648e-02  1.0000082270059834e-02  5.8366553564311342e-03  2.6495928358978134e-02  2.4753087106955205e-03  1.2991075583640326e-03  1.1181220033459281e-02  4.3228188484835590e-09  2.8848014820691670e-05  1.4886484444288813e-02  2.3732405587062383e-02  2.5271770701172203e-02  1.3217194440101805e-03  5.1027884476194461e-04  1.7660620086772927e-07  4.1221954357322898e-04  7.0878680917794849e-07  7.1163096369827159e-09  4.9461718755816583e-05  3.4949287507559310e-03  1.1440203983320906e-06  2.2417288662301248e-05  3.9825344103959422e-08  3.6524446255761936e-03  1.2224108282462137e-03  1.9499157139647547e-03  2.8720214853128665e-03  1.0853317311931192e-03  2.14727839723