<?xml version="1.0"?>
<VTKFile type="UnstructuredGrid"  version="0.1"  >
<UnstructuredGrid>
<Piece  NumberOfPoints="6486" NumberOfCells="12696">
<Points>
<DataArray  type="Float64"  NumberOfComponents="3"  format="ascii">0 2.5 0  0 0 0  2.5 0 0  2.5 2.5 0  1.25 0 0  2.5 1.25 0  1.25 2.5 0  0 1.25 0  1.25 1.25 0  0 0.625 0  0.625 0 0  0.625 2.5 0  0 1.875 0  2.5 0.625 0  1.875 0 0  2.5 1.875 0  1.875 2.5 0  1.770833333333333 0.7291666666666666 0  0.7291666666666666 1.770833333333333 0  0.9375 0.625 0  1.875 1.5625 0  0.642361111111111 1.163194444444444 0  1.341594827586207 1.883979885057471 0  0.46875 0.46875 0  2.03125 2.03125 0  0.3626104797979798 1.513178661616162 0  1.381740196078431 0.4564950980392157 0  0.9375 2.172619047619047 0  2.172619047619047 0.9375 0  2.096354166666667 0.4036458333333332 0  0.4036458333333333 2.096354166666667 0  1.684027777777778 1.163194444444444 0  0.3418803418803419 0.8693910256410255 0  1.642742622813391 2.162164207604464 0  1.275619849389031 0.8465650753054845 0  0.9136284722222221 1.434461805555556 0  1.732437511238546 0.3406962303960658 0  0.9714402568595876 1.029779313093998 0  1.52281746031746 1.485615079365079 0  2.1875 1.71875 0  1.06819722569879 0.2997236128493951 0  2.136114211309524 1.303478422619048 0  0.3125 0 0  0 0.3125 0  2.5 2.1875 0  2.1875 2.5 0  0.3200021620376328 1.192323085056694 0  0.6738456129277992 0.8304377375553881 0  1.757891808928991 1.861952730357003 0  1.5625 0 0  0.9375 0 0  0.3125 2.5 0  2.1875 0 0  2.5 0.9375 0  0 0.9375 0  0 1.5625 0  0.9375 2.5 0  2.5 0.3125 0  0 2.1875 0  1.5625 2.5 0  2.5 1.5625 0  0.7448220909826522 0.3003573636608841 0  1.027298850574712 1.871151477832512 0  1.331260495098891 2.197262878816185 0  1.207917681892289 1.582765010956622 0  0.4339993447432606 1.801186844743261 0  0.6337298768939392 1.443093039772727 0  2.049851190476191 0.6826636904761904 0  0.6584821428571428 2.219122023809524 0  1.89575676467455 0.9798457973793544 0  1.437570562095628 1.059380588255917 0  1.502090052505845 0.6987070896496241 0  0.2040860661083546 1.705323965099331 0  0.2083333333333333 0.46875 0  0.5070952039991439 0.2211150679997147 0  0.6916302856529919 0.5813591430410241 0  2.265625 1.953125 0  2.2265625 2.2265625 0  1.886424081252096 2.243391360417365 0  1.40625 0.202164758520858 0  0.2269345238095238 0.2269345238095238 0  1.152730869673694 0.5225850378741401 0  1.885631899587912 1.312095130148776 0  1.614808884009367 0.9049784971014416 0  1.890095442220658 0.5126535558463003 0  2.323168682795699 0.46875 0  2.268811725689575 0.2304742875213018 0  0.6002389442105756 1.967426444210576 0  0.1768313172043011 2.03125 0  0.2311882743104251 2.269525712478698 0  2.03125 0.176831317204301 0  2.280262553344767 0.6954945504579233 0  1.979219539285994 1.809922269642997 0  2.336309523809524 1.09375 0  1.09375 2.336309523809524 0  0.9314042474388009 1.662973812215543 0  0.1634067999087722 1.40625 0  2.337090640094896 1.40625 0  1.141616997467638 2.069311773587991 0  0.46875 2.338939559681489 0  1.542440307908715 1.734944797244472 0  1.556713687786879 1.956977865354753 0  0.8264238995344066 1.975424467820646 0  1.466326331454725 1.275271369760862 0  1.655675324257095 0.5444159974393489 0  0.3385416666666666 0.6479255698005697 0  0 0.78125 0  0.5236073939200119 0.984090461540625 0  2.091665741047893 1.519793517904215 0  1.71875 2.5 0  0.5356538886262603 1.623137930505009 0  0 1.09375 0  0.1932884281517095 1.015625 0  0.8569313582417669 1.2198915584249 0  0.8876981284879677 0.8329884081524883 0  1.115618488474214 0.7219586973356271 0  1.186950366204949 1.043465130075318 0  2.057459118787237 1.110823087309335 0  1.830651283878689 2.049810069572418 0  1.689107969301489 1.367247437031697 0  0.4921048768039656 1.298643370653124 0  0.8213975694444444 2.336309523809524 0  2.03125 2.5 0  1.049729400480002 1.283723261332814 0  1.308101375801673 0.6489479469700392 0  2.5 2.34375 0  0.4968777175037714 0.7562964879736076 0  1.40625 2.5 0  1.501347663534097 2.307027627307738 0  1.602813712048603 0.1926218191360736 0  0.8393082906308107 0.463778306132633 0  1.682663349152719 1.598471865581041 0  0.7774174680851571 1.560004941327907 0  1.554204170364662 0.3898593897892066 0  1.842184459051087 0.186443880058197 0  1.358107417651776 1.696381759610015 0  1.18859291992392 1.77598670078022 0  0.1875331222687418 0.7609599743339348 0  1.339536743965101 1.422080365801479 0  0.7788179348750389 0.9955343414928611 0  0.9062978492805438 0.1919636509126373 0  1.256007360640958 0.3160320559396114 0  1.09375 0 0  1.174986727221844 0.1594990293443933 0  2.34375 1.796875 0  2.318026474511116 1.589177949022232 0  2.34375 2.5 0  1.672742954892153 2.332882724550692 0  0.2683637361947215 1.874801596909639 0  2.174770749820102 0.5581009131310781 0  1.443279522965991 0.8870068372898454 0  0.3385416666666667 0.3571428571428572 0  0.78125 0 0  2.060421048269335 2.314363248763811 0  1.088078737088509 0.8967352118723447 0  1.087825368444708 1.454931510884769 0  2.018308232129541 0.8548495425854904 0  1.943987311736842 0.3246298523011434 0  1.71875 0 0  1.85337849796276 1.144833312386208 0  2.3486328125 2.1044921875 0  1.407588788651747 2.042968789119587 0  2.336309523809524 0.865366648092144 0  2.34375 0 0  2.5 0.15625 0  0.15625 2.5 0  0 2.34375 0  0.1638044648294291 1.242263417405867 0  0.356216654757926 1.032569427322806 0  0.3188217956111817 1.355736727000647 0  0.5924956460852111 0.36112522004736 0  0.6594216488965849 0.1603472116132387 0  1.841804599497131 1.72214349266521 0  0.15625 0 0  0 0.15625 0  2.115898634821499 1.894570904464496 0  0.7821877980253907 0.7129993435924866 0  1.003820447087786 0.4516053462784233 0  0.477562948779147 1.138333049293613 0  0.719493678605015 1.305655360135975 0  0.9772457618587566 2.020350128938537 0  0.8764738248887107 1.826219722709673 0  1.254787875123819 2.339010653832026 0  2.343597354852534 1.249982759769001 0  0.78125 2.5 0  0.46875 2.5 0  2.5 1.40625 0  1.09375 2.5 0  2.5 0.78125 0  2.5 1.09375 0  2.03125 0 0  2.5 0.46875 0  1.40625 0 0  0.46875 0 0  0 0.46875 0  0 1.40625 0  0 1.71875 0  0 2.03125 0  2.5 1.71875 0  2.5 2.03125 0  2.005424054645407 1.653223486966518 0  0.1538730573856537 1.559850281736677 0  2.33984375 2.33984375 0  1.166539506212474 1.922878979538754 0  0.3914885633949916 1.65887232812171 0  0.5795503163042564 1.766243562569382 0  0.399533125920212 1.946786875081388 0  0.7866324979014098 2.127719094551316 0  0.3654683023546834 0.1495701132219454 0  0.1527388747131078 0.6116379440619215 0  2.013737577140188 1.391056634712135 0  1.17635437372994 2.213329084238133 0  1.737118141866284 1.010577140843115 0  2.200707118087222 1.164723314085963 0  1.697018908736685 1.993548551451517 0  0.5387621649009668 0.6070503962352419 0  2.032805785855952 0.5330427622570983 0  1.082699501358059 1.667818725183932 0  1.503819781540653 0.5468420196858188 0  2.015409142866072 2.175941657590429 0  1.752057611265444 0.869642097111018 0  0.612251684107783 2.356045720700959 0  1.902817102342857 0.6607642211999982 0  2.159616561739693 0.7867739969338844 0  0.5120038350106624 2.197302352398502 0  1.888200216011548 1.919501662489862 0  1.495909909726654 2.16028358757309 0  0.489139876703609 1.443203008943564 0  0.8819175670410521 0.3301172743913011 0  1.882591144370812 0.8155965192707721 0  1.133979796994841 1.172526771862882 0  2.206217447916667 2.084147135416667 0  2.20361328125 2.36279296875 0  1.395746985657004 1.556054166359645 0  1.704383111516207 1.734750450338683 0  0.9575737847222222 2.36274223823052 0  1.035150984253136 0.1302833343179028 0  1.383966125325753 0.7651479963479179 0  1.64003252158672 0.6824316405528895 0  2.22550785055421 1.487078576356817 0  1.760964431499756 1.48495222505201 0  1.276460980673788 2.004207003584658 0  0.1341477688427096 1.828777507920502 0  1.542261434180652 1.155296658359034 0  1.334627911613854 0.9696897472490321 0  1.30794231473696 1.119420615785191 0  0.7028260459857245 0.4438906910721139 0  1.625757433094055 1.84268057552138 0  0.9818707849053143 1.165603626132254 0  2.0086489901463 1.243134585689553 0  1.934584460420609 2.374094051915812 0  1.798434376789567 2.38671361912528 0  1.206314791201715 1.382064292497919 0  0.6333752893366955 0.7023738550008095 0  0.7796219811205605 1.42573253164258 0  1.564399711917382 1.026040828857629 0  0.3385416666666666 0.4889012896825397 0  0.1041666666666667 0.390625 0  0.989112246382566 1.543537365516289 0  2.025724425454636 0.9846960595520872 0  0.6602885475034063 2.086117390485779 0  1.607130551925032 1.267198646640915 0  0.1317864544877056 0.8896173683400176 0  1.755387840017567 2.230364320056445 0  1.301540702984401 0.1216289692748247 0  1.433170657577442 0.3331052752740999 0  1.500459610550388 0.113513924782439 0  0.6494291520606965 1.029586599619295 0  1.010146149868299 0.794897284196169 0  0.3700844198238017 2.235390157870766 0  0.3360891767780704 2.36656279435396 0  1.876856241037701 1.437150669863757 0  1.778674102957329 1.245979347269706 0  0.5472829890977179 0.1005517127039925 0  0.4669074189005698 0.3416784232954367 0  1.472765289289269 1.850899166481903 0  1.555853593327178 1.608452097912802 0  0.6708955559113426 1.646561631116984 0  0.8164699620322933 0.5924479455478063 0  0.3167738989468366 1.758696809749795 0  0.2788007305565096 1.605499483471246 0  0.7821720982350511 0.181524936294752 0  1.376812251214195 2.313340247908297 0  1.785652202614777 0.5962261755537186 0  1.761467296310972 0.4679567244718574 0  2.2265625 1.8359375 0  2.3828125 1.9140625 0  0.5279531607054191 2.071552361614785 0  2.397573269551114 0.234375 0  2.383578172599618 0.3589298466020009 0  0.1024267304488855 2.265625 0  0.1164218274003825 2.141070153397999 0  0.2696857594953064 2.135405441512016 0  2.164961300137334 0.1375322943529536 0  2.137757548369486 0.2724194778647587 0  2.238873711826398 0.3626419179496562 0  0.1001414910226386 0.234375 0  0.2176339285714286 0.3478422619047619 0  0.2503620791333544 0.1061694061057066 0  2.336445461915368 0.1250451055247424 0  0.2154004640409726 2.3918124
[...]
<PointData  Scalars="f_124-3"> 
<DataArray  type="Float64"  Name="f_124-3"  format="ascii">3.3290134739833077e-14  1.7380728669691429e-06  -7.8127434781841304e-25  8.3610166101605036e-23  2.4955412137473249e-10  2.3502785522982696e-18  8.1596821295181027e-15  1.2089612671644216e-03  7.1464962685405787e-06  2.5175955047444316e-02  1.0934941030259849e-06  3.5173877438622629e-14  7.5569227479047698e-08  2.9881423253056769e-21  6.1813479047812522e-17  2.0115858820399815e-19  7.2815459497720829e-18  8.3393419648662989e-11  5.0790031395267300e-07  4.2224868406773644e-04  1.1737509227678710e-11  1.7369169934736608e-03  1.2795789410574856e-09  8.2523163764880066e-03  1.7659070360622918e-15  4.4125543259965430e-05  2.5615333239751271e-08  6.9224033726921763e-11  7.9023356006196650e-15  2.4023056410989989e-17  5.8073364932181658e-10  4.5945093220711514e-09  1.3985571924729389e-02  1.6930936727358086e-13  1.0370288513784401e-05  3.8671082294794171e-05  3.3939866543095545e-13  5.3509956084840757e-04  1.7713580242882503e-08  2.0703574653379082e-15  6.0656577477024007e-07  7.4382834229081561e-14  3.1115385240632477e-06  1.0370858576753539e-02  7.8622734308727201e-21  2.7314834009055563e-20  1.8851815333703781e-03  6.7363456072842449e-03  3.1725101473039573e-12  2.1004460363464939e-13  4.5237377390685756e-08  2.2098758261370057e-14  2.4933586407093120e-21  2.5546475254845818e-19  9.5497463282381480e-03  2.5814290308987313e-05  1.8738511997457868e-14  1.5533459741520141e-24  7.2107837353674689e-11  4.3961770833245913e-16  1.7865720952693556e-18  5.3962075230316235e-05  2.3077741989970366e-08  3.0224018912539863e-12  4.4367415046700671e-07  3.5139546264095035e-07  1.0785490888810435e-04  1.4734259405673678e-14  2.6157011583335196e-11  2.2280868306667276e-11  8.7297090898731015e-07  4.9133181411009525e-08  2.2525327000999322e-06  2.0424543965461350e-02  1.5312833920771670e-04  3.4611336908243221e-03  2.6040025660173806e-17  1.4704807512080809e-18  6.5021813099048052e-16  5.2813388241063877e-11  3.2257360502745708e-03  5.6924245346057033e-06  3.2091421264493762e-11  1.6714788511054519e-08  1.1343967969587211e-13  3.2049110585705436e-20  1.9211607679528229e-22  1.0683657084265129e-08  2.7136664846009219e-09  7.3560421400408915e-12  7.4604150978502044e-19  1.2458603772128367e-17  8.7084211382707499e-14  1.4234614070087611e-16  7.6841576945469775e-13  1.3942202132390076e-06  2.0776504936534010e-04  2.3516861053249559e-16  2.2169494696800386e-10  1.7969585440176101e-12  7.1894664999441700e-10  1.9639377829074357e-11  7.4063404665154381e-09  2.3167485490500580e-07  1.5270239839430764e-10  2.1743806639645643e-02  1.7268837552700898e-02  6.9050901176762134e-03  8.2472532179547821e-14  7.4728154648415130e-17  7.3976356610843702e-06  3.9957640461532155e-03  6.4598107106159982e-03  4.2990025528517249e-04  1.4712490536049375e-03  7.0794988212036642e-05  4.1608574726695338e-05  4.5243355417442023e-13  4.5829076331377805e-14  1.9649525849245820e-09  6.6598531280546297e-04  1.3696660919071227e-12  5.4009673696464368e-19  4.3743647576120959e-05  1.4874211300210070e-06  8.6569133315622643e-22  1.4490878264376056e-02  2.2089368394684274e-15  5.1795792777434505e-14  3.6704764829630358e-13  2.7582746883730559e-04  3.2704900095038970e-10  1.3249471990163463e-05  1.2871724514314673e-10  2.7623281472048562e-16  1.7927178493714762e-08  3.4906680683757348e-08  1.9655063086923150e-02  5.1869941808700893e-07  2.6261708161125098e-03  5.4464276893967608e-07  2.4088520685890105e-08  4.1095412116977287e-09  3.8652365289407396e-09  2.0635894486713385e-17  1.7169909734780213e-16  1.4342673192724872e-21  3.7218890653625277e-15  8.7738550970178645e-08  3.1049976151708583e-17  5.5451214553781685e-07  9.0376583491852437e-03  2.8139719230692837e-07  7.3433547948212223e-18  1.7763218472845096e-04  6.8429976937861266e-06  3.2535941169504987e-13  4.4247730501991340e-16  4.7601688967910712e-15  8.7018701620081219e-11  5.9598056577789377e-19  2.8880499271300845e-11  1.9825600196637654e-17  -1.0929660175100052e-23  -4.8361133506549942e-25  2.9890310653938832e-14  1.1251882458947440e-12  1.1532427874672497e-03  6.3991149998501957e-03  3.5213624568300022e-04  9.1247681569035864e-04  5.0945795490250956e-06  3.7498918140468408e-12  9.9324020572477043e-07  5.8200549738207858e-04  1.4710021931213363e-15  2.7966319234943621e-03  2.6633984084980206e-05  2.9981500056215043e-03  3.8429918080081697e-04  1.8327740453994788e-09  1.2126860664883004e-07  2.8510372809536907e-13  1.8092520967437073e-16  2.1916318715907014e-14  2.8743758643727050e-14  3.0456092052793596e-18  1.5057971892702507e-14  3.4383803374074684e-20  1.1860636022942732e-18  6.0343577321805892e-19  5.9875117723016576e-23  6.7131422336916414e-12  2.6508078946326779e-06  2.0086196275659246e-02  2.3713902454644821e-04  1.7985478263042380e-06  3.2293962379217437e-09  7.1997738459491605e-19  4.4458426045405067e-20  2.6873696287712558e-13  2.4673402903610705e-05  2.4479556724381526e-20  3.1927238287777431e-09  4.9481349709545559e-06  5.5693430481264917e-07  1.8355057631771067e-08  2.4142974329977147e-10  8.5353675578531493e-05  2.6060035133258518e-02  1.1700267474408920e-12  9.4537555750305954e-12  1.2834900225606211e-09  8.7665400293757648e-15  1.3062102926252588e-12  1.0513812029153613e-02  2.1351237319176345e-15  4.7415981975658824e-07  5.9388568167545376e-09  2.0188015278267971e-16  5.6585086761175071e-10  8.8633344438317878e-13  8.9885434078915328e-13  1.9085625843836294e-15  5.6595296874120155e-11  1.2319831410614184e-13  1.1101795708161340e-12  1.1823429128964919e-04  1.9660014209849773e-05  8.2112302542040510e-12  4.6916086250933786e-05  1.7863031948281331e-17  1.6993437625660865e-19  5.3210803539337707e-08  4.0458728955541367e-11  5.0492909582417208e-13  2.4901953689338982e-08  9.4685361901698532e-07  1.3621356438319552e-09  3.7780273992888112e-15  2.3091496663284933e-10  2.7820761903881567e-10  2.5524845624160754e-07  8.9023884086288007e-08  4.8445293258370603e-06  5.7049010928635581e-06  9.9147091455966925e-04  4.3093255979494912e-11  2.2759188597887956e-04  2.1882136465560050e-12  2.7553552318264672e-17  1.8697880593155682e-16  4.0569863929444528e-06  8.0891708230239976e-03  8.1411230703060073e-05  7.3410120878328570e-08  1.8192486161683986e-02  1.5457599466034257e-02  5.6471515673295628e-06  6.4397029434738505e-13  6.0808891991241777e-10  1.8609626010969903e-08  1.2207883954943760e-02  9.0882826652248614e-15  1.5356452502139128e-10  8.4458493462179354e-10  1.3138488490955037e-12  3.8707221630900398e-03  3.6964650591041936e-04  2.6432115438472131e-11  6.2214947471715071e-13  2.3794061713903508e-11  4.6294452448707130e-10  3.8948710559545895e-06  2.3887674307734711e-03  3.6244629873668984e-10  2.4089408775849051e-09  4.3544204796570363e-06  1.2518736532607109e-03  8.2978450437861059e-07  1.2165243130325483e-05  2.4477114067086942e-06  1.4475606044600513e-13  8.9934016522418244e-12  1.9140155545449905e-12  2.9268099287211488e-16  2.3470973764554838e-18  1.1264042623128784e-09  6.1582036412531539e-25  3.2590310752221629e-22  1.1784740690156447e-11  2.5203799648493018e-10  3.0486437084462890e-10  5.1133766809863867e-21  2.3737031237677562e-19  5.7222024089413462e-20  4.5900834399196736e-03  1.2966191077563959e-02  3.2036458120555756e-05  -9.1161332957882240e-24  3.6910936961630495e-13  1.5836974502509338e-11  6.9104824618341067e-05  2.5419211749563544e-14  6.6485687801806894e-05  7.9267649538422846e-07  5.9959311049269910e-07  7.8300726719883223e-09  2.3324262066507699e-09  1.3489085249060856e-03  2.0948860380977552e-08  8.8721542848056687e-18  1.0134763434867485e-19  9.3677028335089260e-19  4.9729490226887608e-20  3.8075915808349348e-03  3.8350680115900254e-08  5.2661049064085656e-08  5.1750825553800674e-08  5.9931747017553152e-15  3.7210752904859068e-08  3.9610557900470021e-14  1.1946303073959726e-02  1.8307450888354716e-06  1.8305371018007312e-07  3.2900822120795117e-16  1.7039613251503493e-07  3.7113178556467233e-15  3.0112913647786626e-11  2.7754822800104498e-03  1.2529855423014879e-17  2.2093379573614264e-02  7.3808189912668925e-04  2.3170145316317909e-14  1.4526650460220707e-14  1.7393515027750735e-15  7.2299534495993657e-14  1.0024010039951223e-04  5.5222723930525017e-04  1.6799220788573583e-17  3.0708130113631321e-15  1.0655277465752824e-03  3.3253826253013860e-14  2.8672270733637480e-09  3.2184660102842916e-15  5.2099222619624426e-16  9.0964346735091762e-18  1.7581679156289031e-12  8.9478873968600967e-07  2.4546597732532836e-13  1.1741817698785964e-04  1.9680178563594324e-02  1.6288969452516681e-02  2.4323920062026466e-02  2.1137206236391346e-11  7.6094589061609849e-06  2.1731030177602252e-03  2.2987544721663135e-17  1.6662636488290828e-17  2.1576271509400591e-14  3.1154664296452183e-13  1.1296859434590949e-21  1.2062878927031972e-12  5.3752153738944111e-14  1.0154538076550744e-07  4.3064423129560403e-19  2.0260797772271909e-11  1.2122587967287013e-13  8.3328290648593015e-10  1.5226812776634144e-08  1.2621823338932349e-06  9.0629026370025672e-05  1.2140926794037715e-03  2.7722082481705112e-17  6.5342366073800526e-09  1.6153525630331625e-04  4.1718260851793083e-05  4.2192267844963087e-15  6.7889579980262684e-03  1.1072757604301485e-03  3.3272514482327303e-03  6.4244158762641671e-04  3.5390203368805912e-13  1.8597661655112815e-04  8.5725448345283272e-08  1.6763770447017267e-06  2.8162546315297856e-09  1.7225741575110390e-10  3.5148225747459555e-16  1.2559134899579743e-05  1.9621841253289082e-07  1.0866450091674378e-04  1.9301531188145577e-11  1.1675704470486032e-02  1.6244741291025779e-03  1.5036151173942707e-16  1.1950891566507240e-07  1.6903323884957783e-12  1.4355198706052164e-16  3.0315784640294893e-05  2.2368847786408727e-02  7.3332770734724009e-03  6.2721813831959152e-12  6.4074343271244337e-14  3.0608738166499401e-07  1.4085301656945134e-13  4.4693411333187985e-15  2.1801851968315717e-05  1.0714571982366290e-02  -3.5060764823566234e-24  1.0712051762211206e-05  1.1955841255490819e-05  5.0974102420625092e-05  2.3255914097902238e-18  1.7882865955062717e-06  2.5549474243044587e-05  1.9562342663134239e-10  1.6533037069795805e-02  3.5438385317096699e-03  3.0760770288564738e-14  1.6983864196921276e-05  1.6259207811745998e-10  6.1365630402200570e-13  1.0178719580900535e-13  2.9757474868531421e-04  1.4177957430255522e-03  9.5992836972328620e-08  3.4218020268846520e-11  4.7189183808789668e-13  1.5867417089260777e-14  5.6350509797721264e-07  1.7273448865663918e-06  1.3104025941962965e-13  3.6023512329294190e-12  9.2543884315631480e-18  2.1219961036536161e-09  4.1703035343729124e-09  1.2944874361591725e-11  7.0702025616860096e-12  6.3809295484903453e-07  3.0328825351906493e-18  1.5115844078146023e-06  2.2472042510136026e-04  8.1678624554032157e-15  1.3397356957027383e-20  4.7430707992705649e-03  3.5622022579281437e-10  2.6434543727648767e-07  1.7014994287287122e-06  1.3402256087060821e-22  1.5508063466230743e-07  3.9588764150501931e-03  4.9780967563931074e-13  1.7734301776774310e-18  5.0082944943977662e-16  1.4260980125223702e-14  2.6534749560412369e-04  1.8102258705006560e-02  1.2459567160977170e-05  1.6899180238662683e-02  2.5144558945231610e-09  2.3288962856750811e-09  8.3343822473095058e-04  4.4294219680995759e-20  1.2986739361460188e-19  2.9086387284524626e-04  5.7523501357563908e-12  9.0350839967474235e-03  4.3214779118218480e-10  2.3991170796171048e-02  2.3825020204274724e-17  1.9208934589475649e-04  3.4417891060935484e-04  4.8512093198305300e-08  1.2515073666250426e-08  1.4331297105581326e-09  1.0134053133354262e-08  4.5174278348165911e-09  9.7175098833184428e-08  2.0862299149917838e-05  2.0477079894316147e-14  6.8712458102704745e-17  2.1338689222137657e-18  6.0115170241724928e-12  1.6401214377281294e-03  1.8626424010467343e-16  1.1716461235794055e-03  5.5162948660858393e-08  8.9685791414221790e-04  2.0193504817475301e-10  3.7826926820214813e-05  1.8366762769465731e-09  3.0837749333645684e-14  1.3013802220383194e-07  9.1481249297019522e-20  2.2691561699760649e-16  2.1654849249456863e-11  6.0672037108690942e-15  4.7122921457132348e-08  1.6882266352004129e-16  3.5383270659762103e-14  2.3665126252374788e-08  2.2416594556909826e-05  3.1692742535837149e-06  3.8658076373812069e-22  4.1232373985709197e-21  1.3773301917541265e-13  6.4249515625896597e-08  1.7254341296336313e-07  4.5722601588972041e-07  1.8349335285598643e-10  3.6357179733062230e-18  6.6564603255047924e-06  1.8365844203939453e-11  9.8474393255130275e-05  5.6279577739918683e-03  4.2797910349451142e-12  3.9259102268713367e-07  7.4351610466578836e-09  1.8861719077766418e-13  2.6660944654063692e-13  4.3131236475697682e-09  7.9893767360366431e-06  3.4574537111232999e-06  2.2360455117733745e-17  3.6821587051886584e-11  4.6835890658065510e-08  8.0818181566310760e-10  1.7278374306833982e-10  2.5998261138830819e-12  2.9089567137362184e-09  3.1182045974579147e-15  8.2103428750278771e-16  5.8828254261970716e-10  1.3586213131760986e-20  8.5992926269202114e-14  2.8423042997484665e-14  2.9932026700480539e-12  1.7495060057182089e-18  2.5109298838080264e-17  5.0861602112713866e-18  -6.8980508194237659e-25  4.8680184598236758e-11  6.6177667617432199e-17  3.7855850940852085e-03  3.6709987550288883e-03  1.0958064559774210e-08  2.6792890854547266e-14  3.7684739993696757e-16  3.3880467349515336e-09  6.1409678144350700e-20  1.8502546866113441e-18  2.9938656174111226e-06  9.8854112216086366e-07  1.3671555968363342e-21  6.3265788751397973e-11  4.8624897533912795e-07  4.3042118236991215e-05  3.8446577378718183e-13  2.5802142523439794e-12  1.8710132774029225e-22  7.2359752592290882e-03  1.6739687795678127e-02  7.8439895793770437e-03  1.5623635174507357e-08  -2.3050089503613716e-24  1.0767908993918562e-10  1.2988690096527243e-02  8.2653133153787833e-20  2.1280334630109667e-12  3.7374478858285810e-12  1.1684359625320763e-10  4.9108586471225088e-12  6.4238667552124931e-21  1.1937649926803092e-08  9.8399734946481339e-16  2.0997569167138314e-19  1.6474379854293335e-02  3.7759014312623158e-05  4.3577470847426412e-08  2.2328558274667346e-15  1.8262472799406009e-18  3.8352332584510936e-07  6.5484159509113852e-12  1.7158682174652176e-05  1.2403280437480641e-08  9.6229581899076895e-20  2.7204294799985313e-06  7.9852156701423170e-03  2.7939584777444742e-04  1.3409154475533942e-10  8.1232600587307930e-04  1.1331725173191250e-05  7.2693433328064305e-06  2.6474673177456399e-15  2.4557299337953459e-11  9.6997793881347890e-04  3.5243730073094935e-04  3.4984806331337054e-04  1.6155445433334296e-06  2.9829732025527849e-05  3.4433617213754189e-03  5.3190680411904117e-04  1.0672494014634754e-17  6.3484744458411040e-19  1.0702060478055990e-06  1.2569293215389050e-05  3.3788313989760055e-06  1.3213583723139014e-04  1.0653562396365867e-02  6.6766934823161361e-12  4.5085051143261432e-16  1.5848980366217036e-08  2.1277410565709264e-16  1.1524838811385968e-18  4.7145339404146205e-18  2.4911926309209292e-10  2.4602313214627206e-17  1.4618881954308173e-04  1.1615657378719607e-14  2.1434824604771784e-07  7.8845371809639430e-13  4.3792154755818535e-13  1.5182487824833933e-06  6.2236286130719719e-06  1.2227005112310007e-15  4.1713065145620419e-11  1.7185602286424070e-19  1.1327831475754536e-03  4.4429646447823347e-10  1.9496577953921287e-22  4.2240035126052816e-03  5.4863384330140243e-03  2.9476768772853571e-09  1.7005432623879207e-13  4.1198502220614245e-06  2.5427454065607460e-06  2.6024956863021662e-18  8.8560912312765307e-06  8.7879389019650517e-22  6.8427941510141488e-17  1.9190203915753527e-07  4.8644085822752223e-14  2.1116811682397558e-02  2.9799639230679379e-06  1.1826661275680743e-10  1.4084116938509162e-09  4.9919670279653248e-08  2.5147356559359104e-15  5.2354597446110751e-15  3.6355554648917905e-09  1.2078476425680238e-04  2.8310722762849123e-09  2.9536763742971618e-12  2.3287889568363648e-16  1.7292178785994304e-17  3.9134357281347690e-10  1.1746263365970937e-03  1.0082379421067591e-14  1.1917891443444353e-17  9.8373840661670919e-10  5.1419370264366791e-21  2.2537287190170213e-14  1.4246705606108542e-19  1.7626624286245764e-13  3.4772020870830068e-14  3.9203646588710568e-15  7.7139577344122886e-06  2.7562635030725072e-14  1.4060482945148697e-18  4.5676973392962695e-16  3.2465421446424278e-14  1.7806380489448120e-18  2.6924767192337240e-18  2.5196992194724563e-18  6.4045343116021338e-03  2.2561869663563407e-03  5.8689610607171798e-04  1.1717544563705674e-14  2.2188035556525210e-02  1.1788405265851330e-07  6.8743959699013810e-18  1.7407715786222250e-08  2.7319233357229110e-14  2.2543694719996652e-06  9.0157708194800256e-12  -2.3352011237721984e-25  1.8986276639485625e-06  1.4262258859819854e-12  4.6428039103237019e-03  1.5387080512265276e-02  2.2482757745477808e-17  2.5655317820497607e-21  2.7459787530897795e-22  2.7979065375936137e-22  7.7022343340149032e-05  8.6506071975807782e-16  2.4485761762965345e-02  4.4044407133806280e-19  2.1669313831419998e-20  1.2378742387669419e-23  2.2157528095986690e-12  6.4547080926204824e-12  1.6296078143438958e-06  1.3333588808685124e-13  3.4471667991591100e-08  4.7006678194484037e-14  5.5602053538162102e-03  1.2984471264823751e-02  1.0527752717358747e-02  2.8985617134002692e-16  3.8830029882624694e-06  2.9321227971823550e-03  2.5835138260677848e-02  3.7737094482040375e-09  4.5970508327512733e-04  2.4520270233580666e-05  4.1882058221700628e-10  8.4003412495504498e-05  2.8430078303228546e-05  9.2841735694429992e-06  4.8941199308182015e-04  2.3415659724172391e-02  2.4516160128107086e-02  1.6191564301157369e-15  7.2652493941197728e-11  6.9330864709324905e-09  2.3221106859960838e-14  9.1314063350202285e-03  2.3655294588792437e-17  3.5164861381340256e-05  5.7603105650230007e-10  1.0615181172190004e-04  9.9573864494339297e-03  1.3544196960134733e-07  3.9822810866158537e-09  1.1106172681550169e-08  2.4084329898073744e-03  5.4658092861348912e-04  5.0911304352019431e-15  2.5031389296627686e-16  9.1634927640220805e-03  5.4011585105576811e-15  1.5590371257223299e-16  3.5443657881765679e-05  4.0479983986370499e-09  1.0418237435845998e-03  7.8747066699574356e-10  2.6423425154860555e-03  7.5361100510932927e-16  2.8733606722273050e-06  1.0883014190024704e-06  7.6246609995009709e-13  8.9002006615964493e-12  5.2422602179391601e-12  2.4308986132827791e-13  6.2388387505020394e-13  1.4348591797542619e-10  2.3141827051668948e-04  1.6797904261678875e-10  4.3521542292010226e-07  3.9611773892354137e-06  8.6254619122626331e-08  4.1896525417323503e-08  3.2896589962392804e-14  2.9232234156996565e-07  8.8326416268882554e-12  9.1857734162485405e-13  1.4215653969472675e-09  9.6109365945401944e-10  1.4394927971031456e-05  8.0795940269765848e-06  1.4138426074379025e-06  9.4241801695469987e-05  1.3471812065385429e-18  4.0972927872775157e-12  1.6791524120990328e-12  3.3346031070760496e-11  8.8707206117346348e-11  1.3798425024907582e-11  1.5435150836491731e-14  1.0493552825658846e-08  8.1932777211141291e-11  1.6581125507252312e-15  1.4382197004573324e-18  1.4299749949889183e-14  2.9234740489225927e-07  1.0167026399662451e-04  1.5301264945517068e-03  1.0489353144455835e-08  9.8487728929136267e-19  2.1585860415826185e-03  1.8815690279408872e-10  1.4505169199219762e-15  1.5321057168362058e-02  4.1431262060233903e-16  4.4855793559421235e-16  4.8430792712430090e-16  5.1050764805000955e-19  3.2851681009512898e-15  1.3280579922904704e-13  1.1738469855449618e-04  3.5798492704681687e-08  1.0559266713463010e-06  6.6526990524322556e-04  3.9959978999990831e-12  2.2771285583635802e-13  1.4806922405223434e-07  6.6542085681722052e-21  1.2445079933175427e-06  5.2013550034970245e-07  1.1605952549374756e-04  2.8343681304665060e-04  5.8538890215099736e-12  1.5464368958679134e-13  2.3888870379997095e-14  8.6817034286640038e-14  1.4905107882471202e-13  4.9955167473377286e-25  1.2092070590554564e-18  3.7566007189829319e-10  2.1975626847683908e-13  1.2547297115187103e-19  2.9447199704312173e-19  3.3356671460367731e-11  5.1894656818812941e-12  3.6969394914952581e-11  1.8035097668918419e-10  3.6524717882620320e-12  1.281