<?xml version="1.0"?>
<VTKFile type="UnstructuredGrid"  version="0.1"  >
<UnstructuredGrid>
<Piece  NumberOfPoints="6486" NumberOfCells="12696">
<Points>
<DataArray  type="Float64"  NumberOfComponents="3"  format="ascii">0 2.5 0  0 0 0  2.5 0 0  2.5 2.5 0  1.25 0 0  2.5 1.25 0  1.25 2.5 0  0 1.25 0  1.25 1.25 0  0 0.625 0  0.625 0 0  0.625 2.5 0  0 1.875 0  2.5 0.625 0  1.875 0 0  2.5 1.875 0  1.875 2.5 0  1.770833333333333 0.7291666666666666 0  0.7291666666666666 1.770833333333333 0  0.9375 0.625 0  1.875 1.5625 0  0.642361111111111 1.163194444444444 0  1.341594827586207 1.883979885057471 0  0.46875 0.46875 0  2.03125 2.03125 0  0.3626104797979798 1.513178661616162 0  1.381740196078431 0.4564950980392157 0  0.9375 2.172619047619047 0  2.172619047619047 0.9375 0  2.096354166666667 0.4036458333333332 0  0.4036458333333333 2.096354166666667 0  1.684027777777778 1.163194444444444 0  0.3418803418803419 0.8693910256410255 0  1.642742622813391 2.162164207604464 0  1.275619849389031 0.8465650753054845 0  0.9136284722222221 1.434461805555556 0  1.732437511238546 0.3406962303960658 0  0.9714402568595876 1.029779313093998 0  1.52281746031746 1.485615079365079 0  2.1875 1.71875 0  1.06819722569879 0.2997236128493951 0  2.136114211309524 1.303478422619048 0  0.3125 0 0  0 0.3125 0  2.5 2.1875 0  2.1875 2.5 0  0.3200021620376328 1.192323085056694 0  0.6738456129277992 0.8304377375553881 0  1.757891808928991 1.861952730357003 0  1.5625 0 0  0.9375 0 0  0.3125 2.5 0  2.1875 0 0  2.5 0.9375 0  0 0.9375 0  0 1.5625 0  0.9375 2.5 0  2.5 0.3125 0  0 2.1875 0  1.5625 2.5 0  2.5 1.5625 0  0.7448220909826522 0.3003573636608841 0  1.027298850574712 1.871151477832512 0  1.331260495098891 2.197262878816185 0  1.207917681892289 1.582765010956622 0  0.4339993447432606 1.801186844743261 0  0.6337298768939392 1.443093039772727 0  2.049851190476191 0.6826636904761904 0  0.6584821428571428 2.219122023809524 0  1.89575676467455 0.9798457973793544 0  1.437570562095628 1.059380588255917 0  1.502090052505845 0.6987070896496241 0  0.2040860661083546 1.705323965099331 0  0.2083333333333333 0.46875 0  0.5070952039991439 0.2211150679997147 0  0.6916302856529919 0.5813591430410241 0  2.265625 1.953125 0  2.2265625 2.2265625 0  1.886424081252096 2.243391360417365 0  1.40625 0.202164758520858 0  0.2269345238095238 0.2269345238095238 0  1.152730869673694 0.5225850378741401 0  1.885631899587912 1.312095130148776 0  1.614808884009367 0.9049784971014416 0  1.890095442220658 0.5126535558463003 0  2.323168682795699 0.46875 0  2.268811725689575 0.2304742875213018 0  0.6002389442105756 1.967426444210576 0  0.1768313172043011 2.03125 0  0.2311882743104251 2.269525712478698 0  2.03125 0.176831317204301 0  2.280262553344767 0.6954945504579233 0  1.979219539285994 1.809922269642997 0  2.336309523809524 1.09375 0  1.09375 2.336309523809524 0  0.9314042474388009 1.662973812215543 0  0.1634067999087722 1.40625 0  2.337090640094896 1.40625 0  1.141616997467638 2.069311773587991 0  0.46875 2.338939559681489 0  1.542440307908715 1.734944797244472 0  1.556713687786879 1.956977865354753 0  0.8264238995344066 1.975424467820646 0  1.466326331454725 1.275271369760862 0  1.655675324257095 0.5444159974393489 0  0.3385416666666666 0.6479255698005697 0  0 0.78125 0  0.5236073939200119 0.984090461540625 0  2.091665741047893 1.519793517904215 0  1.71875 2.5 0  0.5356538886262603 1.623137930505009 0  0 1.09375 0  0.1932884281517095 1.015625 0  0.8569313582417669 1.2198915584249 0  0.8876981284879677 0.8329884081524883 0  1.115618488474214 0.7219586973356271 0  1.186950366204949 1.043465130075318 0  2.057459118787237 1.110823087309335 0  1.830651283878689 2.049810069572418 0  1.689107969301489 1.367247437031697 0  0.4921048768039656 1.298643370653124 0  0.8213975694444444 2.336309523809524 0  2.03125 2.5 0  1.049729400480002 1.283723261332814 0  1.308101375801673 0.6489479469700392 0  2.5 2.34375 0  0.4968777175037714 0.7562964879736076 0  1.40625 2.5 0  1.501347663534097 2.307027627307738 0  1.602813712048603 0.1926218191360736 0  0.8393082906308107 0.463778306132633 0  1.682663349152719 1.598471865581041 0  0.7774174680851571 1.560004941327907 0  1.554204170364662 0.3898593897892066 0  1.842184459051087 0.186443880058197 0  1.358107417651776 1.696381759610015 0  1.18859291992392 1.77598670078022 0  0.1875331222687418 0.7609599743339348 0  1.339536743965101 1.422080365801479 0  0.7788179348750389 0.9955343414928611 0  0.9062978492805438 0.1919636509126373 0  1.256007360640958 0.3160320559396114 0  1.09375 0 0  1.174986727221844 0.1594990293443933 0  2.34375 1.796875 0  2.318026474511116 1.589177949022232 0  2.34375 2.5 0  1.672742954892153 2.332882724550692 0  0.2683637361947215 1.874801596909639 0  2.174770749820102 0.5581009131310781 0  1.443279522965991 0.8870068372898454 0  0.3385416666666667 0.3571428571428572 0  0.78125 0 0  2.060421048269335 2.314363248763811 0  1.088078737088509 0.8967352118723447 0  1.087825368444708 1.454931510884769 0  2.018308232129541 0.8548495425854904 0  1.943987311736842 0.3246298523011434 0  1.71875 0 0  1.85337849796276 1.144833312386208 0  2.3486328125 2.1044921875 0  1.407588788651747 2.042968789119587 0  2.336309523809524 0.865366648092144 0  2.34375 0 0  2.5 0.15625 0  0.15625 2.5 0  0 2.34375 0  0.1638044648294291 1.242263417405867 0  0.356216654757926 1.032569427322806 0  0.3188217956111817 1.355736727000647 0  0.5924956460852111 0.36112522004736 0  0.6594216488965849 0.1603472116132387 0  1.841804599497131 1.72214349266521 0  0.15625 0 0  0 0.15625 0  2.115898634821499 1.894570904464496 0  0.7821877980253907 0.7129993435924866 0  1.003820447087786 0.4516053462784233 0  0.477562948779147 1.138333049293613 0  0.719493678605015 1.305655360135975 0  0.9772457618587566 2.020350128938537 0  0.8764738248887107 1.826219722709673 0  1.254787875123819 2.339010653832026 0  2.343597354852534 1.249982759769001 0  0.78125 2.5 0  0.46875 2.5 0  2.5 1.40625 0  1.09375 2.5 0  2.5 0.78125 0  2.5 1.09375 0  2.03125 0 0  2.5 0.46875 0  1.40625 0 0  0.46875 0 0  0 0.46875 0  0 1.40625 0  0 1.71875 0  0 2.03125 0  2.5 1.71875 0  2.5 2.03125 0  2.005424054645407 1.653223486966518 0  0.1538730573856537 1.559850281736677 0  2.33984375 2.33984375 0  1.166539506212474 1.922878979538754 0  0.3914885633949916 1.65887232812171 0  0.5795503163042564 1.766243562569382 0  0.399533125920212 1.946786875081388 0  0.7866324979014098 2.127719094551316 0  0.3654683023546834 0.1495701132219454 0  0.1527388747131078 0.6116379440619215 0  2.013737577140188 1.391056634712135 0  1.17635437372994 2.213329084238133 0  1.737118141866284 1.010577140843115 0  2.200707118087222 1.164723314085963 0  1.697018908736685 1.993548551451517 0  0.5387621649009668 0.6070503962352419 0  2.032805785855952 0.5330427622570983 0  1.082699501358059 1.667818725183932 0  1.503819781540653 0.5468420196858188 0  2.015409142866072 2.175941657590429 0  1.752057611265444 0.869642097111018 0  0.612251684107783 2.356045720700959 0  1.902817102342857 0.6607642211999982 0  2.159616561739693 0.7867739969338844 0  0.5120038350106624 2.197302352398502 0  1.888200216011548 1.919501662489862 0  1.495909909726654 2.16028358757309 0  0.489139876703609 1.443203008943564 0  0.8819175670410521 0.3301172743913011 0  1.882591144370812 0.8155965192707721 0  1.133979796994841 1.172526771862882 0  2.206217447916667 2.084147135416667 0  2.20361328125 2.36279296875 0  1.395746985657004 1.556054166359645 0  1.704383111516207 1.734750450338683 0  0.9575737847222222 2.36274223823052 0  1.035150984253136 0.1302833343179028 0  1.383966125325753 0.7651479963479179 0  1.64003252158672 0.6824316405528895 0  2.22550785055421 1.487078576356817 0  1.760964431499756 1.48495222505201 0  1.276460980673788 2.004207003584658 0  0.1341477688427096 1.828777507920502 0  1.542261434180652 1.155296658359034 0  1.334627911613854 0.9696897472490321 0  1.30794231473696 1.119420615785191 0  0.7028260459857245 0.4438906910721139 0  1.625757433094055 1.84268057552138 0  0.9818707849053143 1.165603626132254 0  2.0086489901463 1.243134585689553 0  1.934584460420609 2.374094051915812 0  1.798434376789567 2.38671361912528 0  1.206314791201715 1.382064292497919 0  0.6333752893366955 0.7023738550008095 0  0.7796219811205605 1.42573253164258 0  1.564399711917382 1.026040828857629 0  0.3385416666666666 0.4889012896825397 0  0.1041666666666667 0.390625 0  0.989112246382566 1.543537365516289 0  2.025724425454636 0.9846960595520872 0  0.6602885475034063 2.086117390485779 0  1.607130551925032 1.267198646640915 0  0.1317864544877056 0.8896173683400176 0  1.755387840017567 2.230364320056445 0  1.301540702984401 0.1216289692748247 0  1.433170657577442 0.3331052752740999 0  1.500459610550388 0.113513924782439 0  0.6494291520606965 1.029586599619295 0  1.010146149868299 0.794897284196169 0  0.3700844198238017 2.235390157870766 0  0.3360891767780704 2.36656279435396 0  1.876856241037701 1.437150669863757 0  1.778674102957329 1.245979347269706 0  0.5472829890977179 0.1005517127039925 0  0.4669074189005698 0.3416784232954367 0  1.472765289289269 1.850899166481903 0  1.555853593327178 1.608452097912802 0  0.6708955559113426 1.646561631116984 0  0.8164699620322933 0.5924479455478063 0  0.3167738989468366 1.758696809749795 0  0.2788007305565096 1.605499483471246 0  0.7821720982350511 0.181524936294752 0  1.376812251214195 2.313340247908297 0  1.785652202614777 0.5962261755537186 0  1.761467296310972 0.4679567244718574 0  2.2265625 1.8359375 0  2.3828125 1.9140625 0  0.5279531607054191 2.071552361614785 0  2.397573269551114 0.234375 0  2.383578172599618 0.3589298466020009 0  0.1024267304488855 2.265625 0  0.1164218274003825 2.141070153397999 0  0.2696857594953064 2.135405441512016 0  2.164961300137334 0.1375322943529536 0  2.137757548369486 0.2724194778647587 0  2.238873711826398 0.3626419179496562 0  0.1001414910226386 0.234375 0  0.2176339285714286 0.3478422619047619 0  0.2503620791333544 0.1061694061057066 0  2.336445461915368 0.1250451055247424 0  0.2154004640409726 2.3918124
[...]
<PointData  Scalars="f_124-3"> 
<DataArray  type="Float64"  Name="f_124-3"  format="ascii">6.4412180396027224e-03  1.1536377291354489e-05  2.2376708309158340e-07  6.4101958114435816e-04  7.4514570721717934e-06  1.5231973767858127e-05  6.8790352750699819e-03  2.9075854796165070e-02  1.1560206820339322e-02  2.9069427426414780e-02  1.2167948114186257e-05  6.9337099568202625e-03  2.3728324026500880e-02  1.5193853942703287e-07  2.4914699577106801e-06  4.7215423481634591e-04  4.3833514862119767e-03  1.4011652545296852e-05  2.6076886170449603e-02  1.6873147167001143e-03  3.8418189926192870e-03  2.7776363932939405e-02  2.0457037472450396e-02  9.0295229805780544e-03  5.5413767627074942e-03  2.8495994532262352e-02  1.0945845236608626e-05  1.6150380689218629e-02  7.3270668923980651e-06  1.1099531223823479e-06  1.8072598408790341e-02  1.2929202951035804e-03  2.9026129815241736e-02  1.2110512910916913e-02  1.2988551529840712e-03  2.6308447272624540e-02  3.4105650257559308e-06  1.3336099860471944e-02  1.0256946658264010e-02  1.5470935338936502e-03  1.3319225395522507e-05  2.6657746794733278e-04  1.3189398042538122e-05  1.0502342870021114e-02  8.1361412936950311e-04  2.0326231403196234e-03  2.9123075972989278e-02  1.8037786808460399e-02  1.0708284780608429e-02  4.8021475270077583e-06  9.9346279176213072e-06  6.3118652521270092e-03  8.5328815224205921e-07  6.0945474075259373e-07  2.9167182124593703e-02  2.8218297966186860e-02  6.8424529840894407e-03  1.7509212416545184e-07  1.4851232654563990e-02  6.0189711208587819e-03  1.3750736295092779e-04  8.8080162577593596e-05  2.3560892726113648e-02  1.4177411015299124e-02  2.2000771220920052e-02  2.5720168894922263e-02  2.8558265571781656e-02  1.8722727565584485e-06  1.4317695131793408e-02  8.5021622335954727e-05  2.2833568332578115e-03  7.0243715158904330e-05  2.7016820695117693e-02  2.1281139066396601e-02  1.7429077918432599e-04  5.2883249340107685e-03  1.8569146401039185e-03  2.6402480847795488e-03  7.1145430660326256e-03  6.1963657301547399e-06  3.2577068027675195e-03  9.3689841583885958e-05  1.1293257630779500e-03  2.7693203733773970e-04  2.3704330671878761e-06  3.7569298191827102e-07  5.4449330690829874e-07  2.2169987964315796e-02  1.9763937797527015e-02  1.2259934012293826e-02  1.4774375355156840e-06  5.5804350979850215e-07  5.0355412923475682e-03  1.1166349060963200e-05  1.0821573154799485e-02  2.6459119270026997e-02  2.8861587375471228e-02  1.4667968559230557e-04  1.8694815971654039e-02  1.0503243777279849e-02  1.5201325267095774e-02  1.5904144320648336e-02  2.2104449080095574e-02  5.9852215306950961e-03  5.9731060375447398e-06  2.6260569841919202e-02  2.9169040748657237e-02  2.7728852320578232e-02  1.1269124702920740e-03  5.4364670643664717e-03  2.7786790025773837e-02  2.9144226566971822e-02  2.9185386287724366e-02  2.4051241831207042e-02  8.5072750943159976e-03  1.1991327840187758e-03  6.8202252701749892e-03  9.9400977886724995e-05  9.3668935872361237e-03  3.6897690396793352e-03  2.8962228904580709e-02  1.0856309646939474e-02  3.2321561350940743e-03  1.9550746852427046e-02  1.4436648811196683e-04  7.9130806804205648e-04  2.3537763009260530e-02  6.5049810857827888e-03  1.0292335053906429e-02  4.4821163406987169e-06  5.7055242628964746e-04  8.3961377181786031e-03  2.7763282063443171e-02  5.3183614596563250e-06  2.5410671239296296e-06  1.9800799891895659e-02  2.3405215668869096e-02  2.9416528979349169e-02  1.3927465131449691e-02  2.0012693712844174e-02  1.1591416551814853e-05  8.5155229267075431e-06  8.6983523585528667e-06  8.2906334805211203e-06  8.4945351808647586e-04  4.5535877626213395e-04  1.1629155602858713e-03  8.5133053878675997e-03  2.4225626789704476e-02  7.7319984523744624e-07  6.6022969784098272e-04  9.2380054677991298e-03  1.1048636467363439e-05  4.1745389994894445e-03  4.9229186506534652e-03  2.2760945496095308e-02  9.3631018549260098e-06  1.9037857169604335e-06  3.6207337907358017e-06  4.4313126531187374e-04  1.5298033165413983e-03  1.7173945580556176e-02  9.2549919940855684e-07  4.5644252900324397e-07  2.0580047048108474e-07  6.4048329750989895e-03  9.5630577028953320e-03  2.9075282001535287e-02  2.9176467767819906e-02  2.8943944838652324e-02  1.0715578160069108e-03  1.7476795519996669e-05  6.7820034116973377e-03  1.0748626747568908e-05  5.9968186009484183e-04  3.3842101568960087e-03  7.3186102351008456e-03  1.3194577725476141e-04  2.8966210824458223e-02  2.7899045685738220e-02  2.0719180983066098e-02  2.4962279997743555e-02  1.0663824737454954e-02  4.2198193803839776e-05  6.8551417912316205e-03  6.4361082652926154e-03  4.9989184235055636e-05  6.8841564246863917e-03  2.0158412353754506e-07  3.0767432271118633e-06  1.5708584396972741e-06  1.5464033064611204e-07  6.0181244127640916e-06  1.3242328237679678e-05  2.0905362861591552e-02  2.8862275572414883e-02  2.6780893427321685e-02  2.0010148474284079e-02  2.8339524046735364e-04  6.7105211492924245e-04  2.8990373521707918e-03  2.8234946191588711e-02  1.5125044307287188e-03  2.1890032113202680e-02  2.7611873489490842e-02  2.6201028002735535e-02  2.2606718335593110e-02  1.7634797238805226e-02  9.8564253216734663e-05  2.9577123919872370e-02  9.0801214579451809e-04  1.4660038183348233e-02  3.1375174800582088e-04  5.4119613713042321e-05  1.2653493638675095e-02  1.3726907338653324e-02  1.4546806260605923e-06  2.5061758030028209e-02  1.2154927419620559e-05  5.5020691951773214e-03  7.0486089121695540e-05  1.0054711603661939e-02  3.4836438381728015e-06  1.7906007357058447e-06  1.5030105824227242e-02  7.9596784269758847e-03  1.3804885462836255e-02  2.8715201912018012e-02  5.5637450699616404e-05  1.4911398569524544e-05  1.2878263874506529e-02  2.8923305610008840e-03  2.3685899413352441e-03  1.5803858061687982e-02  1.0512366224563962e-02  1.0004783265518400e-02  9.3884930058760768e-06  3.1559256510039428e-04  2.0279436301318614e-05  4.7486504632747082e-04  4.5973752691352210e-03  1.9496866097073087e-02  2.5153486069302976e-02  2.4038699790806567e-03  2.1546685708947297e-03  5.7592295426709674e-03  1.4037395109808299e-03  1.4075443458042240e-02  1.8277377043053624e-02  3.9526656336642580e-04  5.1440397506940265e-03  6.3166087489931145e-03  1.7371642209206228e-02  1.3928982922223065e-02  2.7913832835002317e-02  9.5895056390058592e-04  1.9273578445997905e-02  1.5800933262802946e-02  2.6050979077226259e-02  3.5440724804483162e-05  1.8630687948324849e-02  3.2884257389417834e-03  2.9209624062315278e-02  9.4378868672464426e-03  7.0625452473785094e-06  6.3690992175747734e-06  5.3113227106581216e-06  2.5727225093281538e-02  3.9540629449110820e-03  1.3663342940990305e-02  9.3524001126202815e-03  2.2125760353380202e-03  1.3285951497801120e-03  1.5162526037818485e-05  2.5218680725563134e-03  1.8005788671963886e-02  1.2103757736998431e-02  2.7430149118717006e-02  2.8616412653677658e-03  2.6362183066338918e-02  2.7996253897318048e-02  1.4758914881395072e-05  1.0778395449467357e-02  4.4028012701873469e-06  3.3927760179497023e-06  1.8172149964674367e-03  9.1885845927955204e-04  1.9098642657464721e-02  2.8034615300876765e-07  2.9319217992831307e-07  1.2406831337940294e-02  1.6700060900502300e-02  1.6801650237355414e-02  8.9659789378015049e-07  9.7640177673611141e-07  6.2875238120061168e-07  4.6276034121643184e-03  1.3172095830362657e-02  4.2809779780796964e-05  4.1525069853281422e-07  8.5440688383980508e-03  1.4561134235247417e-02  8.0383762155730365e-05  3.5337148861447898e-06  5.7559641116707310e-04  1.9229670161575195e-05  4.0960600117798873e-05  2.1303954763322249e-02  6.8146374206281557e-03  2.4600874205439011e-02  2.2314798889140990e-02  2.0571686111383452e-06  2.9630665973315354e-07  3.5586590780576730e-07  1.3357942508787930e-03  4.6147454018196166e-03  2.3813172965976646e-02  2.3908462382525732e-02  1.8224338932174629e-04  1.0241786696534108e-03  6.6439125362205967e-03  2.5995890559922930e-06  2.7292102268623077e-02  2.6866511236264067e-02  2.5261444920561048e-02  9.7301241922493308e-07  1.0653321485691773e-05  1.6353977390987468e-05  1.6682909348507507e-02  2.9138714898668566e-02  2.1356256701681061e-06  2.9326862619260794e-02  2.8646750588468710e-02  2.8152121143673742e-03  5.6387370306691265e-03  1.6919296075347387e-06  8.4805054771112925e-03  2.8715475085178691e-02  2.9002259407036605e-02  1.3563697820448181e-04  1.4749898371951926e-04  1.9288915610398791e-02  4.1853958953555199e-06  6.2992402495518003e-05  7.6026716933965009e-03  2.9760940608954051e-06  3.0856469304336911e-04  1.4031030653713812e-02  4.7093041440577563e-03  8.8560327809107508e-03  2.4026621471798001e-02  2.8873161249396727e-02  1.8755210063317089e-02  2.6865254413895326e-02  4.3917616653014499e-06  2.7658875827327414e-02  2.9115625245759877e-02  4.5112366758061812e-05  1.1648442520658789e-05  8.0741251487038528e-03  8.2761777834002206e-03  9.4394462646928948e-04  2.2149082549814268e-03  5.2883404423802410e-04  2.9262503115879197e-05  2.9636844413904869e-03  5.2055628871350623e-06  1.1212206362982641e-02  1.9398544486028648e-02  2.3051241692656429e-02  1.0169893240694585e-02  2.8652973649135851e-02  1.2580733628578102e-03  3.9155762085760909e-03  1.6213512441513159e-02  1.2575315830643143e-02  3.5244196431686212e-03  7.5232234965681120e-03  2.4149524738768618e-02  4.6993561084454063e-03  1.2211091129777306e-02  8.7177338089899463e-03  4.8261177887635036e-06  2.6694460498815329e-02  2.4508253311244007e-02  2.4303839890276076e-02  2.1512869461488213e-02  1.7766112642277603e-02  3.8145998763587505e-06  2.7242917359548494e-02  1.5337772767737417e-05  1.3768326227974869e-04  1.4205196628573379e-02  2.9274990464669661e-02  1.3916151714267381e-02  3.1257678808776553e-03  1.0346322942321719e-02  4.2316066915733762e-06  7.9823033199636652e-04  2.3380242109305362e-02  2.3630106584948761e-02  2.9166238396429518e-02  1.2884876400435147e-04  2.8744431532864843e-05  1.8162559197864903e-02  1.6010564778756779e-04  8.1023054800753395e-03  2.8154103344809920e-02  2.3588520985393373e-02  3.0408680648809503e-07  2.8337347524940793e-04  6.8461078334534160e-04  1.9726593908701083e-03  7.3397069932976792e-07  2.7015173146038674e-02  2.8288984937295453e-02  2.2849333298076212e-03  2.1605566078138391e-02  2.8152108398854365e-02  6.6135647912043171e-03  1.5532587163043093e-02  1.8539849213634971e-02  7.3163379548599394e-03  1.1443565373582374e-02  2.8802483168195343e-02  2.9082039297890723e-02  2.4695698288903119e-02  7.4951514657688404e-03  1.0403171357635166e-02  7.5384342984382707e-03  1.1568637511807572e-05  2.0645729939732561e-02  8.3761548985493220e-03  1.1898576357641195e-02  1.4135041937998843e-06  7.5719130777157092e-06  2.1191793993890332e-02  6.1726307235315968e-06  1.5648578243365661e-02  1.1705117216815576e-05  5.0767909400519919e-07  2.6635494741691097e-02  8.5677290834491032e-03  2.7743143904222313e-06  1.6018488096241586e-03  1.9936869034747593e-02  1.1741942202355499e-02  9.3776786740277151e-05  1.6218592944865763e-05  6.3524270433520215e-07  2.3536399726697004e-02  2.9146668557876391e-02  1.2530930753489372e-02  1.3142005815222017e-03  1.9340202479153062e-06  6.7557505859418129e-03  1.9387837384704828e-03  2.6413238613502043e-02  1.9823446502455207e-02  2.9226955953924074e-02  1.8311077054915543e-02  1.3586186245101686e-05  2.9050962121531663e-02  1.1523774019873269e-06  1.3066237414061872e-06  2.8903951947493001e-02  1.2732109594981238e-02  2.8737851001310925e-02  6.2535417235709106e-06  2.9191158476934955e-02  1.9325329461596797e-06  3.1986319662827392e-04  9.7764801917237768e-04  9.1083066410874201e-06  8.1482809246746112e-06  6.9792242297920611e-06  2.1707911580213870e-02  2.1921647025808715e-02  2.0028572383771735e-02  3.2804390057106555e-05  6.3471647202520270e-03  5.5538734372294445e-03  3.2378758266765244e-03  1.2229054929069104e-02  2.8726353795964676e-02  5.7600259376357956e-03  1.9850765784569647e-03  9.3905729851342760e-06  2.7046578899482244e-02  1.7028102954070340e-02  2.8228945984653673e-02  6.9885664814478527e-06  1.8978346190896664e-03  6.2820819091339902e-04  3.1362890474475227e-07  2.7348527955337916e-04  5.5102541053570549e-04  8.7615944362196396e-03  2.3307783029471379e-02  4.1770967598737567e-03  1.9597196499341161e-06  1.2413258356489814e-03  8.6938499860658366e-03  1.3547443442483150e-05  1.4755877506261165e-07  2.3337164989079353e-07  8.5938374565443752e-03  9.9851580576694782e-06  2.5020075354812477e-02  2.5769010931440229e-02  1.1231261513643237e-04  3.9945484649917332e-03  3.7538261897772023e-05  1.6493254097690677e-02  4.7080001448844907e-04  2.8844865213712798e-02  2.2681736865031124e-04  2.5445091211089923e-02  2.1601109164812456e-02  7.9609588892401544e-03  8.4271590749366836e-03  8.6750690636452590e-06  2.5922842901987449e-05  7.6679526638832084e-03  7.0530086771328678e-07  1.4971526027329124e-02  2.4072804502309243e-02  5.6669778220014570e-04  2.2717085023381660e-04  4.5082762912930568e-03  2.0049135457771494e-02  2.5455566978962855e-03  1.1450248645814450e-06  7.7576467318369891e-06  1.6673248125407596e-07  1.1298431509212892e-05  3.1316913135114755e-06  2.9120985945245442e-05  6.0706966258370514e-04  1.3160385967063795e-03  4.5861476219944227e-04  2.1861897370787683e-07  1.6610860797552283e-02  1.0176298699759184e-06  2.9174164943747707e-02  2.9135993581423398e-02  4.6263811879601889e-04  1.0381874774394152e-02  6.5485117385395497e-03  2.0809499944096045e-03  1.0956218147889934e-03  2.2378608068305442e-03  1.0932313956248656e-03  1.3557303764939249e-03  4.3014285811421414e-07  1.5060425429384065e-02  2.6002936329955588e-02  1.3044864253074893e-04  4.4358902687268728e-03  1.1889351338759051e-02  6.2032501115783739e-07  7.3276942868629605e-03  1.7202305430245365e-02  8.2096412682479830e-03  2.3265999087704214e-02  2.7891976503892551e-07  5.9726260924942657e-03  2.9171157212183548e-02  2.3837211612820461e-07  1.0445777708290426e-02  5.2578201629231439e-06  7.6352869266435034e-06  1.5286611119911527e-02  1.0700519808915319e-03  1.3304660847028960e-02  7.6215272956743603e-03  1.0028225918006679e-03  2.9329463529004781e-02  2.8382084865115759e-02  2.1924130075038951e-02  7.0247364903975194e-05  6.6325169206522096e-07  2.5844721371340688e-02  1.3034074228304554e-02  3.0584578406862910e-05  5.9586942671917381e-05  5.6774064345546573e-04  1.3242705766386398e-02  2.9232060468016793e-02  2.8570471041895234e-02  1.3125535429952449e-02  2.9044697771459491e-02  4.4119732856842215e-03  6.7615184271726590e-05  2.6339341240725120e-04  4.2346764801011879e-05  9.9478159952951905e-04  2.8942753927143728e-02  4.6344258600786799e-04  1.2837884267861445e-05  5.0219841778936569e-05  3.8851892049392082e-03  5.9166314201482934e-04  4.9719787225214425e-06  1.2844714941135309e-06  1.7382963956514539e-02  2.4903671197878716e-02  3.2004831455222913e-03  2.8770109099038533e-02  1.0784016943041661e-02  9.3393237009723809e-03  2.8004413057756508e-05  9.3734612075799005e-06  2.4398577801580711e-03  5.5290790408689585e-07  2.0143092665915489e-03  1.9356025557312421e-02  4.3958692231372094e-03  2.9824982896709058e-03  3.7730861504933866e-03  2.0767022595400889e-04  1.2263211732209884e-02  1.0684209853043468e-02  1.1306040212545870e-05  1.6164424923540476e-05  4.3525654450084156e-03  6.7131917171494775e-06  1.8638790509700384e-03  1.1514223208682122e-03  1.7136984692897022e-02  2.1011750996185437e-07  8.0125985519622148e-03  1.2412637906912877e-02  1.9747463202707190e-04  1.9200995813624642e-03  2.7142638548556076e-02  2.6339686109250712e-05  3.9012118242763689e-03  1.9231383899167087e-05  7.4443718262704908e-07  1.3992236117812698e-06  1.0372869681922719e-05  5.1960432177398663e-05  2.3656947571570167e-02  2.7227283230216792e-02  1.6660773313159544e-02  1.9988177201451126e-02  2.4232060816862810e-02  6.6174104190999707e-03  3.5401907042153714e-06  9.8493656178699016e-03  2.0804801469726596e-02  2.0294159787568006e-02  1.6492849626731790e-03  8.0699271188292492e-05  2.4183054493117648e-05  1.7258917654181690e-02  2.9075955595863096e-02  7.8254137498345519e-03  2.0018939845794638e-04  8.0511793059428212e-06  1.5281731684190310e-03  6.8922137655412835e-03  2.6408320618082882e-03  7.7460229427796321e-03  6.5055562865980118e-03  6.6336463263164998e-03  2.7651113252415413e-02  6.9494382933187708e-03  2.0841493668853663e-04  2.9650286568292289e-06  4.2229136515382322e-06  6.9932530195142188e-06  2.7165480029535288e-05  8.7140312996044538e-05  2.9158475758108985e-02  2.9117205972081808e-02  2.9005846827849100e-02  6.8963148021603787e-03  2.9147588294833372e-02  1.0480512955175734e-05  2.0141306693966203e-06  2.2194195742162151e-02  6.3257294589545727e-03  1.2108142051653308e-05  1.1907432664943622e-02  1.8727143839032327e-07  1.2789325005195596e-05  5.4718375631541327e-06  4.6883695910092931e-03  1.5738545023088517e-02  4.9265661624282369e-03  8.1250073810080787e-04  7.2542885282758445e-04  8.2727636174528363e-04  2.8582409703987836e-02  6.1880452727337979e-03  2.6443869326940473e-02  3.7237474427596125e-04  7.5908961645258202e-04  1.6360333528918608e-07  6.4481704880759992e-06  1.4689973641291276e-02  2.5994769629435709e-02  8.2096433869871602e-03  3.2260955956525059e-05  8.4496901550667695e-03  7.3559548421728051e-03  1.8822498474357127e-02  1.2255739227696018e-02  1.2810160519167346e-03  1.4452974314763228e-05  1.6171672603772187e-02  2.8759104943231178e-02  2.0460010958358300e-02  2.6606348507212555e-02  2.1335082857419963e-04  1.8699047990215864e-02  2.8665276357944382e-02  2.8268669214541658e-02  2.7838853036202506e-02  2.8987339469181746e-02  2.9564674912453626e-02  2.6377045441752442e-02  2.4218828671552694e-05  1.6119656736576161e-02  2.2340108982776143e-02  1.2762280975076216e-04  1.8647005422916189e-02  8.8258399035701828e-05  2.8400619118387132e-02  1.9521704849998763e-02  1.5471397132372208e-02  2.9134209722451010e-02  1.3768470920876770e-02  2.1453264097335445e-02  1.0976696140183336e-05  2.4024370320280451e-02  2.0638706552423312e-02  2.0671026103286556e-06  7.1237545203372306e-06  2.6273988844925000e-02  3.6393305760645189e-06  9.2523362189896606e-07  2.7451856369587628e-02  6.8256896096736096e-04  3.2317017260234675e-03  2.2142612794006119e-03  3.5528262904288609e-03  7.9946381001865603e-04  2.7262267997905952e-02  2.6616633786559252e-02  1.3503751371727666e-02  1.2733905838814264e-03  7.3862760892264316e-04  9.2897314410498211e-04  4.8473083619336862e-04  1.6758302595993382e-02  2.8868676661628075e-02  1.8739051782123803e-02  2.5996097297324060e-02  5.9573308995333947e-04  2.4378604234117082e-02  2.3502519816000492e-02  9.4382376262971933e-03  1.2593023679752565e-03  5.5489924892866892e-06  3.0008897275255073e-06  1.9038962095813166e-02  2.0573707419127278e-02  2.8119218056411349e-02  2.7862944896339933e-02  2.6830332730523869e-02  6.2972944465310094e-03  8.3058975374948072e-07  1.3139483933901333e-02  1.2543876025578906e-02  1.4449418154825755e-02  1.5603409710835511e-02  1.3126855368160795e-02  9.5981302014475633e-03  7.4691919797716909e-03  5.8668864489108591e-06  6.1210993341907229e-04  4.5710987608737327e-07  2.7714188349079231e-04  2.5353080610835847e-02  2.8367151517292001e-02  2.9100117149695348e-02  4.4934689396015030e-03  1.6482795355084929e-06  7.9098180293215841e-03  6.8160132120338996e-06  7.8939366498861595e-03  2.6635268767103985e-02  2.2161025059947059e-06  5.4190633977559332e-03  6.5172185875578097e-03  8.7713275052059834e-04  1.6073104193889849e-06  7.6158402621351378e-03  2.8737616515366438e-02  1.8180949701665335e-02  7.0134860478092125e-03  2.9009923939059958e-02  1.4273083640981076e-02  1.0949698204189029e-02  2.5095096460439562e-02  4.0252584360146190e-07  3.2853993666380337e-05  2.3781689677265169e-02  2.8664428370697641e-02  2.8874889607902236e-02  1.2206126081073052e-02  8.1657108289001339e-03  1.8947002747064386e-06  7.3829140847186800e-03  2.7955438264754164e-06  5.2637703172085623e-07  3.2406259588262454e-03  1.7530126820498676e-02  4.8237603104914016e-06  2.0794895956485807e-03  1.1932324559250584e-06  1.7093055894403370e-02  1.1758993796476963e-02  1.4142158770934001e-02  1.6320832201716814e-02  1.1168574653146558e-02  2.23097619195