<?xml version="1.0"?>
<VTKFile type="UnstructuredGrid"  version="0.1"  >
<UnstructuredGrid>
<Piece  NumberOfPoints="6486" NumberOfCells="12696">
<Points>
<DataArray  type="Float64"  NumberOfComponents="3"  format="ascii">0 5 0  0 0 0  5 0 0  5 5 0  2.5 0 0  5 2.5 0  2.5 5 0  0 2.5 0  2.5 2.5 0  0 1.25 0  1.25 0 0  1.25 5 0  0 3.75 0  5 1.25 0  3.75 0 0  5 3.75 0  3.75 5 0  3.541666666666667 1.458333333333333 0  1.458333333333333 3.541666666666667 0  1.875 1.25 0  3.75 3.125 0  1.284722222222222 2.326388888888889 0  2.683189655172414 3.767959770114943 0  0.9375 0.9375 0  4.0625 4.0625 0  0.7252209595959597 3.026357323232324 0  2.763480392156863 0.9129901960784315 0  1.875 4.345238095238095 0  4.345238095238095 1.875 0  4.192708333333333 0.8072916666666664 0  0.8072916666666665 4.192708333333334 0  3.368055555555555 2.326388888888889 0  0.6837606837606839 1.738782051282051 0  3.285485245626782 4.324328415208927 0  2.551239698778062 1.693130150610969 0  1.827256944444444 2.868923611111111 0  3.464875022477093 0.6813924607921316 0  1.942880513719175 2.059558626187995 0  3.04563492063492 2.971230158730159 0  4.375 3.4375 0  2.13639445139758 0.5994472256987903 0  4.272228422619047 2.606956845238095 0  0.625 0 0  0 0.625 0  5 4.375 0  4.375 5 0  0.6400043240752655 2.384646170113389 0  1.347691225855598 1.660875475110776 0  3.515783617857982 3.723905460714006 0  3.125 0 0  1.875 0 0  0.625 5 0  4.375 0 0  5 1.875 0  0 1.875 0  0 3.125 0  1.875 5 0  5 0.625 0  0 4.375 0  3.125 5 0  5 3.125 0  1.489644181965304 0.6007147273217681 0  2.054597701149425 3.742302955665024 0  2.662520990197781 4.39452575763237 0  2.415835363784578 3.165530021913244 0  0.8679986894865213 3.602373689486522 0  1.267459753787878 2.886186079545454 0  4.099702380952381 1.365327380952381 0  1.316964285714286 4.438244047619047 0  3.7915135293491 1.959691594758709 0  2.875141124191255 2.118761176511833 0  3.00418010501169 1.397414179299248 0  0.4081721322167092 3.410647930198662 0  0.4166666666666666 0.9375 0  1.014190407998288 0.4422301359994293 0  1.383260571305984 1.162718286082048 0  4.53125 3.90625 0  4.453125 4.453125 0  3.772848162504192 4.48678272083473 0  2.8125 0.404329517041716 0  0.4538690476190476 0.4538690476190476 0  2.305461739347387 1.04517007574828 0  3.771263799175824 2.624190260297553 0  3.229617768018734 1.809956994202883 0  3.780190884441317 1.025307111692601 0  4.646337365591398 0.9375 0  4.537623451379149 0.4609485750426037 0  1.200477888421151 3.934852888421152 0  0.3536626344086022 4.0625 0  0.4623765486208503 4.539051424957397 0  4.0625 0.353662634408602 0  4.560525106689535 1.390989100915847 0  3.958439078571988 3.619844539285994 0  4.672619047619047 2.1875 0  2.1875 4.672619047619047 0  1.862808494877602 3.325947624431087 0  0.3268135998175443 2.8125 0  4.674181280189791 2.8125 0  2.283233994935276 4.138623547175983 0  0.9375 4.677879119362977 0  3.08488061581743 3.469889594488945 0  3.113427375573758 3.913955730709506 0  1.652847799068813 3.950848935641292 0  2.932652662909449 2.550542739521724 0  3.311350648514189 1.088831994878698 0  0.6770833333333333 1.295851139601139 0  0 1.5625 0  1.047214787840024 1.96818092308125 0  4.183331482095785 3.03958703580843 0  3.4375 5 0  1.071307777252521 3.246275861010018 0  0 2.1875 0  0.386576856303419 2.03125 0  1.713862716483534 2.439783116849799 0  1.775396256975935 1.665976816304977 0  2.231236976948428 1.443917394671254 0  2.373900732409897 2.086930260150635 0  4.114918237574474 2.221646174618671 0  3.661302567757379 4.099620139144836 0  3.378215938602977 2.734494874063393 0  0.9842097536079312 2.597286741306247 0  1.642795138888889 4.672619047619047 0  4.0625 5 0  2.099458800960004 2.567446522665629 0  2.616202751603346 1.297895893940078 0  5 4.6875 0  0.9937554350075428 1.512592975947215 0  2.8125 5 0  3.002695327068194 4.614055254615477 0  3.205627424097207 0.3852436382721472 0  1.678616581261621 0.927556612265266 0  3.365326698305438 3.196943731162083 0  1.554834936170314 3.120009882655813 0  3.108408340729323 0.7797187795784133 0  3.684368918102174 0.3728877601163941 0  2.716214835303553 3.39276351922003 0  2.37718583984784 3.551973401560441 0  0.3750662445374837 1.52191994866787 0  2.679073487930202 2.844160731602957 0  1.557635869750078 1.991068682985722 0  1.812595698561088 0.3839273018252746 0  2.512014721281916 0.6320641118792227 0  2.1875 0 0  2.349973454443689 0.3189980586887866 0  4.6875 3.59375 0  4.636052949022233 3.178355898044465 0  4.6875 5 0  3.345485909784306 4.665765449101383 0  0.536727472389443 3.749603193819277 0  4.349541499640203 1.116201826262156 0  2.886559045931982 1.774013674579691 0  0.6770833333333334 0.7142857142857143 0  1.5625 0 0  4.120842096538671 4.628726497527622 0  2.176157474177018 1.793470423744689 0  2.175650736889416 2.909863021769539 0  4.036616464259081 1.709699085170981 0  3.887974623473683 0.6492597046022868 0  3.4375 0 0  3.70675699592552 2.289666624772415 0  4.697265625 4.208984375 0  2.815177577303495 4.085937578239174 0  4.672619047619047 1.730733296184288 0  4.6875 0 0  5 0.3125 0  0.3125 5 0  0 4.6875 0  0.3276089296588581 2.484526834811734 0  0.712433309515852 2.065138854645612 0  0.6376435912223634 2.711473454001295 0  1.184991292170422 0.7222504400947201 0  1.31884329779317 0.3206944232264773 0  3.683609198994263 3.44428698533042 0  0.3125 0 0  0 0.3125 0  4.231797269642997 3.789141808928991 0  1.564375596050781 1.425998687184973 0  2.007640894175573 0.9032106925568466 0  0.955125897558294 2.276666098587227 0  1.43898735721003 2.611310720271951 0  1.954491523717513 4.040700257877075 0  1.752947649777421 3.652439445419346 0  2.509575750247638 4.678021307664052 0  4.687194709705067 2.499965519538002 0  1.5625 5 0  0.9375 5 0  5 2.8125 0  2.1875 5 0  5 1.5625 0  5 2.1875 0  4.0625 0 0  5 0.9375 0  2.8125 0 0  0.9375 0 0  0 0.9375 0  0 2.8125 0  0 3.4375 0  0 4.0625 0  5 3.4375 0  5 4.0625 0  4.010848109290813 3.306446973933037 0  0.3077461147713075 3.119700563473354 0  4.6796875 4.6796875 0  2.333079012424948 3.845757959077508 0  0.7829771267899832 3.317744656243421 0  1.159100632608513 3.532487125138763 0  0.799066251840424 3.893573750162776 0  1.57326499580282 4.255438189102632 0  0.7309366047093668 0.2991402264438908 0  0.3054777494262156 1.223275888123843 0  4.027475154280377 2.78211326942427 0  2.35270874745988 4.426658168476266 0  3.474236283732569 2.021154281686229 0  4.401414236174444 2.329446628171927 0  3.39403781747337 3.987097102903034 0  1.077524329801934 1.214100792470484 0  4.065611571711903 1.066085524514197 0  2.165399002716117 3.335637450367864 0  3.007639563081306 1.093684039371638 0  4.030818285732145 4.351883315180857 0  3.504115222530889 1.739284194222036 0  1.224503368215566 4.712091441401919 0  3.805634204685714 1.321528442399996 0  4.319233123479386 1.573547993867769 0  1.024007670021325 4.394604704797005 0  3.776400432023095 3.839003324979723 0  2.991819819453308 4.320567175146181 0  0.9782797534072181 2.886406017887129 0  1.763835134082104 0.6602345487826022 0  3.765182288741625 1.631193038541544 0  2.267959593989681 2.345053543725764 0  4.412434895833333 4.168294270833333 0  4.4072265625 4.7255859375 0  2.791493971314009 3.11210833271929 0  3.408766223032414 3.469500900677365 0  1.915147569444444 4.725484476461039 0  2.070301968506271 0.2605666686358055 0  2.767932250651506 1.530295992695836 0  3.280065043173439 1.364863281105779 0  4.45101570110842 2.974157152713635 0  3.521928862999512 2.96990445010402 0  2.552921961347576 4.008414007169315 0  0.2682955376854191 3.657555015841003 0  3.084522868361304 2.310593316718068 0  2.669255823227708 1.939379494498064 0  2.615884629473921 2.238841231570381 0  1.405652091971449 0.8877813821442277 0  3.25151486618811 3.68536115104276 0  1.963741569810629 2.331207252264507 0  4.017297980292599 2.486269171379106 0  3.869168920841219 4.748188103831625 0  3.596868753579134 4.77342723825056 0  2.41262958240343 2.764128584995838 0  1.266750578673391 1.404747710001619 0  1.559243962241121 2.85146506328516 0  3.128799423834764 2.052081657715259 0  0.6770833333333333 0.9778025793650794 0  0.2083333333333333 0.78125 0  1.978224492765132 3.087074731032578 0  4.051448850909273 1.969392119104174 0  1.320577095006813 4.172234780971559 0  3.214261103850064 2.534397293281829 0  0.2635729089754111 1.779234736680035 0  3.510775680035133 4.460728640112889 0  2.603081405968802 0.2432579385496493 0  2.866341315154884 0.6662105505481998 0  3.000919221100777 0.2270278495648781 0  1.298858304121393 2.05917319923859 0  2.020292299736597 1.589794568392338 0  0.7401688396476035 4.470780315741533 0  0.6721783535561408 4.733125588707921 0  3.753712482075402 2.874301339727514 0  3.557348205914658 2.491958694539413 0  1.094565978195436 0.2011034254079851 0  0.9338148378011396 0.6833568465908735 0  2.945530578578538 3.701798332963805 0  3.111707186654356 3.216904195825605 0  1.341791111822685 3.293123262233967 0  1.632939924064587 1.184895891095613 0  0.6335477978936732 3.517393619499591 0  0.5576014611130192 3.210998966942492 0  1.564344196470102 0.3630498725895039 0  2.75362450242839 4.626680495816594 0  3.571304405229554 1.192452351107437 0  3.522934592621944 0.9359134489437148 0  4.453125 3.671875 0  4.765625 3.828125 0  1.055906321410838 4.14310472322957 0  4.795146539102229 0.46875 0  4.767156345199235 0.7178596932040019 0  0.2048534608977711 4.53125 0  0.232843654800765 4.282140306795998 0  0.5393715189906129 4.270810883024032 0  4.329922600274667 0.2750645887059072 0  4.275515096738972 0.5448389557295173 0  4.477747423652795 0.7252838358993123 0  0.2002829820452772 0.46875 0  0.4352678571428572 0.6956845238095237 0  0.5007241582667088 0.2123388122114133 0  4.672890923830735 0.2500902110494848 0  0.4308009280819452 4.783624996516437 0  2.104871305393774 4.438653689007242 0  0.2274454167838428 0.2274454167838428 0  3.446466574593436 0.4359605369011901 0  2.12354112127588 1.217588426759619 0  2.309175236825235 0.7888355970690434 0  2.556178570281936 1.054299163237582 0  0.578683248637
[...]
<PointData  Scalars="f_10845-3"> 
<DataArray  type="Float64"  Name="f_10845-3"  format="ascii">4.4575921587802313e+03  2.4097464861289664e-02  2.2094257377822694e-03  2.0902319963109297e-03  7.2103136140928880e-03  2.1617787055315759e-03  5.6305782990951980e+02  3.3119744274770749e+08  7.1180213013484804e-03  -4.3229669476137985e+02  9.7852899859806625e-03  1.5678724683650987e+03  9.8253877010905440e+05  2.1898955337836387e-03  4.6736519130321620e-03  2.1498817023225666e-03  3.0066180566060471e-03  5.0478832801076744e-03  4.1784342504393535e+04  8.4717128271308666e-03  4.6433283733075927e-03  -1.6996003525197134e+00  1.3823025920774095e-02  1.0379833897457341e-02  3.9346129346867409e-03  5.7048379136676006e+06  6.6408544037017932e-03  1.4535003934509819e+04  3.4421945518168088e-03  3.7449209599344589e-03  1.0440808109280019e+05  5.4242980840091002e-03  -1.5896811026147990e+01  4.5314518224107685e-03  7.0866268034807901e-03  -2.1572851957239680e-03  5.2258304728450234e-03  8.0456284274924208e-03  6.0296073196250133e-03  3.3773172148390141e-03  7.9361034710079686e-03  3.5770821837736214e-03  1.1697322259087298e-02  7.2753388164044405e-02  2.1515453054099382e-03  3.0545772390702668e-03  -4.1674604192190185e+04  1.0500168083786014e-02  5.0090426996572072e-03  5.9094143433157907e-03  8.4531602777382104e-03  2.8676349536513931e+03  3.4077030930631819e-03  2.1568137775457934e-03  -1.1970154905263949e+06  1.9645889623790111e+07  1.3329995483582170e+03  2.2040167890428051e-03  7.3661233155313806e+04  4.0668985144877157e+00  2.1420374609892739e-03  9.2619061564026585e-03  -6.5976354294380268e+00  4.4699103575187822e+00  7.9697404062497260e-03  1.3351616992883715e+06  -2.3243465349522876e+02  3.9345867281248394e-03  2.3779143304375841e+04  4.5538166938286157e-03  6.4265018930055725e-03  6.1622471658094626e-03  4.2673973887243932e+06  -3.0746146266544587e-02  1.0328780060394400e-02  9.4860855603896982e-03  3.0708657266791798e-03  3.1447561794620679e-03  4.1544950615158309e-03  6.5587988363948416e-03  8.4922960365773105e-03  7.5959383881972218e-03  4.6072343622127936e-03  5.7098522134317771e-03  4.5866845497396771e-03  2.8612959674528837e-03  3.0830244673342323e-03  2.3616934878703687e+05  1.9811688865219578e+05  1.8715547758485212e+04  4.0298980401255752e-03  3.0001189135689787e-03  4.2058983303804188e-03  2.7878643538825861e-03  2.7218634115696409e+03  -8.4056684191273723e-01  5.8764759467776351e+07  2.7661231103387526e-03  1.0911444934140467e+02  8.3356624978124801e+03  5.8435774743698342e-03  5.3149554222345734e-03  4.6013121093654852e+04  6.3088851180345771e-03  5.5196825934522393e-03  -3.3593640219665190e-02  -2.5816168952778051e+04  3.3806853775636383e+00  3.7734864151259106e-03  1.8510031499243833e-02  5.0755459128144180e+05  4.5421734618790820e+06  4.4722044427410023e+04  -1.1652535748372311e-01  8.6012547564361594e-03  7.7401250883742823e-03  7.4540542780965075e-03  3.8853206010442580e-03  4.6339509466696996e-03  5.4023476784722220e-03  -1.5300247321602362e+03  6.5185161014161858e+03  3.2284455226341850e-03  9.2154062428689686e-03  6.9655880004632180e-03  2.1246589999014734e-03  5.4318873109518342e-02  8.8728181311372381e+01  2.2414130342796108e-02  5.7555489837589624e-03  8.8729583924189396e-03  5.4043809440911294e-03  -3.3844211421558001e+01  5.9467566141792362e-03  4.7697451861732649e-03  6.2205574660004030e-03  -1.1955237359270883e-02  4.4567894562529324e+02  6.7235410553287715e-03  -3.4282130045298290e-03  8.5992888406941307e-03  7.1524809306213544e-03  7.8134675124803665e-03  7.4765542646208190e-03  2.7537823920464840e-03  2.8490184784546249e-03  2.6228437676000926e-03  -1.3466281262726279e-03  8.0154793303158158e+05  3.4221865767375629e-03  6.4146629125092858e-03  1.4771579801261073e-02  9.1250719516918211e-03  3.6527537981198271e-03  7.8630182658205542e-03  6.7394471639861510e-03  4.0477373247947172e-03  4.3543560735611955e-03  5.2861485603595670e-03  4.7324035765831524e-03  2.7246882007203122e-03  2.0073796530367919e-03  2.7839086416393895e-03  2.7964536481343508e-03  2.2132708892770689e-03  3.8424527798056547e+03  1.6939577067752740e+04  1.6503868711730517e+06  -1.3123307433074012e+02  1.5489899523743216e+05  9.9297737304046788e-03  9.6234508208058490e-03  4.7587315915041178e-03  1.5955946895194608e-02  2.3476197114113265e-02  3.6560550827416929e-03  9.0772774215888297e-03  8.1996868926101918e-03  3.6982778437391823e+02  -1.1164586285752593e+01  4.0993645659547819e+03  1.1248776361040150e+03  4.0061250985256561e+02  2.7417498432708003e-03  1.6383322495055841e+03  1.8740934259474295e+03  2.1497786777812792e-03  1.0426734673395931e+03  2.1677775603592283e-03  2.1595851863822160e-03  4.0339269481455995e-03  2.2046043110850993e-03  6.5583440618402966e-03  1.0513708331897955e-02  2.2931409532648317e+01  8.5124686950715631e+07  4.4592897040891908e+06  2.0363433547125434e+05  2.1479708035321036e-03  2.1479000417197755e-03  4.1135922539536421e-03  1.7080272680130377e+07  2.6971152918037447e-03  -2.0155074150336878e+00  4.3874705161439143e+06  6.6493281927538523e+05  3.8276372521188221e+05  4.2044600143740397e+04  1.1371995209699040e-02  -1.6938124638933047e+01  4.0833575434260005e-03  5.3550080123426233e+02  5.2077964601637237e-03  3.3036324268874611e-03  5.0856225845801713e-03  1.0125963965812777e-02  3.9997764545580631e-03  -9.0566204322915414e-02  6.1420658795684592e-03  3.9258785428542484e-03  5.1354249499004391e-03  7.3967386616846106e+03  4.5325948243990924e-03  3.4911416179644571e-03  3.5618827514987301e+04  4.5045515837446332e-03  -1.4774764762814039e-02  -2.3096267265313967e+04  8.6996044995275631e-03  4.5925734767577834e-03  7.5725272551252620e-03  3.2721461079136737e-03  3.1682070146700422e-03  6.4684575780404232e-03  5.2602044665990442e-03  4.1597730141575039e+03  8.0626080645372963e-03  6.6496116592869806e-03  5.5877884217006612e-03  3.2195786069402423e-03  5.1062502157124476e-03  -1.5235027649254765e-01  1.3920571308445311e+06  6.0005312302068067e-03  6.8469709142841588e-03  6.9632453988594002e-03  9.4446724052120908e-03  5.4846152017269468e-03  4.9328729093937457e-03  4.0977412327534192e-03  3.7031120258023123e-03  3.3102609879580277e-03  7.1882620949160732e-03  9.3678843130453569e-03  1.4244279967205259e+01  5.9145887497576840e-03  3.1588182209429723e-02  -3.9780391719556363e-01  9.8301276839788593e-02  4.0151457623896639e-03  7.7698680704593557e+04  5.7352605425520630e-03  1.8181585617333451e+04  4.3139816833523701e-03  6.9842860077571059e-03  6.4269393940992398e-03  6.1740415596151102e-03  -2.7376367832510190e-01  8.1775141491487562e-03  2.4162593550131296e+04  6.8803618001771292e+03  4.6340241572704445e-03  5.0427741498313425e-03  1.0117276953110342e-02  1.0351641220669301e-02  5.7517785968967611e-03  5.8535662139069470e-03  3.1789508346580265e+03  8.9733445526061339e-03  2.3132205485339467e+06  9.5909313949172068e+06  9.1131551326603718e-03  2.0367761221091143e+01  5.0020624145699199e-03  5.1162408763696307e-03  3.2189178694701157e-03  2.6013378930066877e-03  1.0546701666900229e+05  2.5792256993861038e-03  2.6401537516275858e-03  3.1334152979534396e+04  6.8204201129251887e+04  6.8483585712157699e+04  3.4966048757370566e-03  3.6003381127330159e-03  3.1956151826950528e-03  5.2107225499370281e-02  8.3180439743730846e-03  1.2673800063651847e-02  2.8235807274879839e-03  8.5141522409954596e+03  4.5102466590971744e+03  1.8024566339483097e-02  5.2553616371050415e-03  7.9603677831788545e-03  7.5878088311468689e-03  7.0871102439835484e-03  2.8316633244377258e+05  5.5887495638594215e-03  -8.6213788814243963e-02  4.9490356971865968e+05  4.4314878821664540e-03  2.6597578113583004e-03  2.5996754289392748e-03  2.5830693102988534e-03  9.8981995787206893e-03  1.5487026008242098e+05  5.2686546871652373e+05  6.0259642323027482e-03  3.4048033804990390e-03  5.9982344798625931e-03  4.7756369604504524e-03  -4.0783117209463421e-01  -2.7647170064039688e+02  -1.9031121602214778e+01  3.4518948182151884e-03  8.7988671291676004e-03  3.2194002500973971e-03  5.3010600879422247e+00  -2.1072727494052460e+05  2.5949957214397496e-03  -5.2089585701308431e+02  -1.6111954868561472e+01  3.8315068760813938e-03  4.0904356746339415e-03  4.1848089808038252e-03  1.1707070703608986e+03  1.9678606139409926e+07  1.4049553199785149e+08  2.4469674755571271e-03  3.1033175546770681e-03  1.6089299153819479e-02  5.5940642853541033e-03  5.5130135431712716e-03  4.3051090193787708e-03  4.9643408341325706e-03  2.4517076651983717e-03  5.1016232488145337e-03  6.5395162268049901e-03  4.4217141920772965e+03  -6.6183025168668735e-03  7.4182886000472301e+00  9.3143663305838599e-03  -8.3656597177001712e-01  5.5342028434258563e-03  8.8206937234273273e+06  -1.9669615144578487e+07  2.4490763021274178e-03  2.4680170792162489e-03  2.0151027448207739e+02  8.9990082786539770e+03  2.4051581539439068e-03  4.1979918250769814e-03  3.5761233001223450e-03  6.6124606134174884e-03  3.3551585902048633e-03  6.0486037113281722e-03  4.7755272484931938e-03  2.8220665954013264e+04  3.8155295199703423e+03  6.7306026060268628e-03  3.9272214374369465e+07  1.1074552393580159e-02  3.5220312417770625e-03  6.1624121012228226e-03  8.1458821791296921e-03  7.4104599357215882e-03  8.1717552977842907e+00  -3.0978117120116774e-02  8.6612767319921916e-03  8.6895585876006990e-03  8.2798440435929849e-03  4.2424651198461651e-03  -6.7532712994350563e-01  -3.4123410954126276e-01  8.8205430529732908e-03  1.6192007476970311e+01  3.9628234255903621e+03  3.0200035142742684e-03  -2.3071820475088334e+00  7.1573797885913573e-03  9.8388476488166874e-03  1.6755146048633072e+04  -7.7583776112730868e+02  9.0788413048749888e-03  3.4473092698309058e-03  6.3433540842265258e-03  5.6183345726937206e-03  2.9437025954354959e-03  -1.1067539022363885e-02  9.4545685006990299e-01  3.2848986747974879e+05  4.3013979279819814e-03  3.6290803200789146e-03  6.9297263004087862e-03  3.6974082975640065e-03  7.0566123238436557e-02  -8.2184974665430855e+03  -2.1824135851181172e-02  2.4785697006585493e-03  7.4311751702898533e-03  7.2463423068189784e-03  7.5228002394498580e-03  3.3809291934014359e-03  1.7464980923741350e+06  8.8520914661021333e+05  4.9657901128934744e-03  -4.2158101643650150e-03  -1.3264420971193710e+01  1.6776707000434869e+03  7.5015996240796658e-03  6.7750852944807646e-03  4.5902079311861965e-03  -9.4245594116928177e-03  -1.4556622328361568e+03  -1.5187910768743300e+03  4.1471994753067818e+05  5.0639669201595870e-03  4.8285900927432348e-03  4.3217261919864022e-03  9.4449722720528761e-03  7.7154329437912686e-03  2.9186652808801859e+03  1.0716405391644683e+04  4.0000607167343860e-03  7.1272771306098905e-03  1.1766710553394938e+05  6.5871404578200596e-03  3.6159591238517936e-03  9.2797835452332871e-03  3.0526177810107458e-03  3.5071435350286406e+06  7.9250230305617127e-03  4.8780325767385146e-03  2.8627452167210698e-03  8.5099792939953758e-03  5.5780606326928184e-03  6.5555120050105695e-03  8.3497002062477028e-03  3.1054544282399506e-03  2.6314450257659489e-03  3.8673568456625484e+05  9.0124927984344461e-02  2.7372646139227591e-03  3.1911020964464844e-03  1.2015313844736388e+03  8.1758558836961415e-03  -3.2431631422290808e-01  8.0570491468842410e-03  -5.6900137026876671e+01  6.1453864060418955e-03  5.8262113684748509e-03  -1.1329965698319224e+06  3.7262709841874996e-03  3.8399262983489896e-03  -6.0855673560981930e+04  9.4000163778056576e+03  -1.1397699163002228e+01  5.8484371991967144e-03  -6.0844123894731228e-01  4.3993485245894482e-03  9.1144227988610160e-03  8.6430779367571136e-03  7.5271530407469223e-03  6.8042329735014812e-03  6.8066259447218599e-03  1.0421533777845611e-02  -5.3069107113313349e-02  6.6265668561189045e-03  1.0574913185802818e-02  2.2224287647199653e+03  3.9078320723150090e-03  3.3968009394306324e-03  1.5329556296047551e+04  4.0165775631571300e+01  4.9105771836908707e-01  9.1971014984919726e-03  7.8429405947617464e-03  5.5502682374931289e-01  5.1435294993345080e+04  -2.8642225099874418e+02  6.2885378604915429e-03  3.7202473603037988e-03  6.0798906832046093e-03  2.1578787791380928e-03  2.8080887688322074e-03  4.4820795090091533e-03  4.4216132885741485e-03  6.4854548730740603e+05  3.6198661998707417e-03  4.1995702990327262e-03  5.7006069057466699e-03  7.3132957357484978e-03  1.0950403160987363e-02  2.1968045155499423e-03  2.5196011734159758e-03  2.3523209298952493e+03  8.4346416143687084e-03  1.0825091567350726e+06  1.8408001199661915e+06  4.9117987621415376e-03  3.5511254732166317e-03  8.2240260830890276e-03  -2.7738728938317975e-01  8.2523339160782520e-03  -2.0505300558008130e+01  4.2139079549542045e-03  2.1380714453173373e+06  2.4220008112425596e+05  3.8241031891528041e+03  3.9232399416191301e+03  7.7109650533404408e-03  8.9340643766653485e-03  6.8732109199729323e-03  2.9328762432815651e-03  2.3094320595543402e+04  3.4223810284701256e+04  5.1003919984373373e-03  4.8459597504307015e-03  4.5030725768367991e-03  2.0240818635301109e+05  3.5659953924192358e-03  3.7144692875077075e-03  7.3009748219179235e-03  2.1824930187829585e-03  3.7809604774996092e-03  3.8784036997438786e-03  4.2674247331488981e-03  2.4425055320530503e-03  2.9060918392088539e-03  2.4902024082374390e-03  2.1998354112007061e-03  1.0987035323808566e+03  3.6885888799392413e-03  -5.0204057236579547e+03  5.5534441544737967e+02  5.5719319094965402e-03  2.9649117431941575e-03  1.5336279502190652e-03  5.3867896712964337e-03  2.4327691130064969e-03  3.0155792636449457e-03  6.7612858274551189e-03  6.4861549103601840e-03  2.9255506881324359e-03  4.1465473187226889e+04  -7.8088456821583492e+01  8.5246692639880991e-03  4.3049646609586720e-03  5.3157565631740990e+03  3.1551409620948125e-03  1.1845210332485886e-02  2.3850790311774544e-02  9.0990298330161923e-03  -1.2774560247942923e+00  2.4957655448862885e-03  5.0953202811644576e-03  1.3426794892284175e+05  2.4843980955982130e-03  1.5948021291655987e+04  6.1049935355679229e-03  5.3298107571726943e-03  -6.5207650377769016e-02  2.4156435632922552e-03  6.1390774161713011e-03  3.9680074715449367e-03  2.4593720538427289e-03  -1.3768668583078195e+02  -1.6377488672652113e+04  6.6697204724561008e-03  3.0855639992538237e-03  2.4600983943183288e-03  1.9268838047596798e+03  5.2358127257168523e-03  9.9724034756275646e-03  5.8508391358101774e-03  2.1484597403359767e-03  6.9992726172871745e-03  -1.9165531431426950e+02  1.8716004458967284e+01  5.5340995746164046e-03  4.6536519548536431e+04  7.0945826245896876e-03  7.8438995528027026e-03  3.1035271165027896e-03  4.6241137211226694e-03  1.1480669907108618e-02  1.2424582134529240e+07  9.5408469852851681e-03  9.7614556945782721e-03  9.4922840498588186e-03  1.0096446385530627e-02  1.0143297956816002e-02  2.4671145056471781e-03  2.1594022356397667e-03  6.9974149485549867e-03  1.2230018707354616e-01  6.7599369140952112e-03  2.4872003530754214e+06  6.8043683312944553e-02  4.9723634840552955e-03  2.8693934789389025e-03  8.1381688134446895e-03  3.3400850788756378e-03  3.1476126764804968e-03  2.9833420618773573e-03  2.1622611605002999e-02  3.6807773936853054e-03  7.8559746142430747e-03  3.8826607643538220e-03  6.3198465119897098e-03  6.5650555221142369e+01  1.2328916382232203e+03  1.5945855907407960e-02  1.6823346102100886e-02  3.7578974728325418e-03  6.8784954234648891e-03  2.8482560763831259e-03  1.9848279871002232e-02  1.3167269721483896e+05  2.4580152977492363e-03  9.3864793553071861e-03  8.8918698956821241e-03  5.3859499128816732e-03  3.9195062007566037e-03  -2.4873920325186003e+01  7.9084066548510620e-03  3.2260085944318157e-03  1.1817718524123076e-02  3.3042618414723638e-03  4.0181035079419457e-03  8.2692882887341664e-03  3.5490667261644389e-03  2.9977835364922142e-02  4.6297280571336811e+06  2.6388358253649280e+04  5.8859445312144409e+04  -1.7414448978011155e+01  4.1353130479627950e-03  5.2721490961421336e-03  5.7787142976526281e-03  8.6449512909072407e-03  6.9910857151559329e-03  4.3003998279468559e-03  2.7517162201723148e-03  2.4333790837988080e-03  8.9214428997509676e+04  1.1464819213705111e+08  4.8263258173497498e+01  2.4333977592017617e-03  7.5131343474943157e-03  2.8750142619673258e-03  1.4929067427000564e+03  3.1827390472851159e-03  8.5289460483491857e+03  3.9122137018228646e+03  2.4503609148585053e+02  9.3612686407923996e+06  1.9017126654076847e+03  2.1443629899985045e-03  4.9824848054536618e-03  5.5964112454217020e-03  2.1623152168408362e-03  2.1541299537304365e-03  2.1448505269988051e-03  2.1011540042270878e+06  3.2375163476823306e+08  1.7283242791351607e+08  7.9757473731707466e+02  -3.1628019692269040e+03  8.7933234685251254e-03  4.3498352798621862e-03  4.4704356079008139e+05  3.2405592865761541e+03  1.3666079463738122e-02  3.4644774964974080e+04  2.2133589935827620e-03  1.0133672216955473e-02  6.2388284510949922e-03  -1.6493904359453995e-01  1.3404460044788710e+01  1.4638326531484444e-03  2.1375358320770443e-03  2.1164177476588335e-03  2.3575028645073329e-03  4.1909270368170001e+07  2.3731755960023587e+01  -1.2761456407952402e+01  2.1494276628533419e-03  2.1582972878666121e-03  2.2017011875012536e-03  4.5412360839340027e-03  7.5104298889019788e+01  -1.1872424059995665e-01  3.1260164949582809e+03  6.2746382958853205e-03  5.4930462009622045e+02  9.8000893906370953e-03  1.3648601170449158e-02  9.4993892835144728e-03  3.1188831623898067e-03  1.0713369473071995e-02  7.7523339830058843e-03  -4.6145670028221723e+01  2.0494967316213381e+05  -6.7790602096309871e-01  7.9024847031624393e-03  1.1603307382264282e+04  3.3561450475330845e+07  1.9912248961940106e+07  8.9628142948597707e+06  5.4928539147497579e+07  1.4273803154803207e+02  -2.2052372480655551e+00  3.0741437695786158e-03  5.6191667738600916e-03  4.5135372506585770e+02  3.4141323796885170e-03  7.7130135495548742e-03  2.4650366688581467e-03  1.8837175731543284e+07  6.6081058546896440e+02  8.7496756271073090e-03  -5.5876592803399319e+01  6.4849077602889020e-03  1.5730038009805816e+04  6.3659570342191468e-03  -2.6839933929963960e-02  -2.0991661107517604e-02  4.4693782868850587e-03  2.9371215342565565e-03  -1.0598260060882524e-01  3.5011541684203777e-03  3.2675609680964924e-03  3.4836229571926802e+00  5.4001431405504407e-03  8.7702247639414414e-03  5.1867420115262195e-03  9.6264276079536040e-03  3.1129338568129184e-03  2.8582133019877598e+05  1.0345599189987702e+05  5.2876315845238435e-03  4.4097309350030365e-03  4.2851816668650414e-03  3.8651434886051664e-03  3.9199796927173762e-03  4.0749474388130802e+04  7.8062684601491913e+07  5.4938146880381222e-01  1.1628378482413564e+06  6.9648077431486962e-03  7.3126372359065665e+05  5.4243981258363032e+05  7.3500195362949441e+00  6.2075046122425015e-03  4.8450016990046404e-03  4.6861473539416701e-03  1.1863385522191573e+05  -5.4152240254015185e+00  7.3751493833976006e+06  2.2403350466587474e+06  2.4977788185838708e+06  7.6500433926582892e-03  3.4698743254740353e-03  2.2121362190966242e+03  4.7955026518352497e+02  2.6051880793946115e+04  4.9936002621197113e+04  1.9396438669064886e+04  -7.1737400491249355e-03  5.8441984005370151e-03  6.3487003937440917e-03  3.1440437947424429e-03  2.5329111444740648e-03  3.3759662038390140e-03  -1.8003731340293960e+00  -1.0334208598126961e+02  4.4735847339233890e+05  5.7004636988016539e-03  4.1367652822180767e-03  8.8790295688338881e-03  6.8515997695251501e-03  3.9460539522801277e-03  -4.0639903133006272e-01  4.5645974719084707e-03  3.8599079751753039e-03  4.1280077805926586e-03  2.4568963584665005e-03  3.6799806548076584e-03  5.2762883915995517e+03  3.3246667449535154e+04  6.4554398559120317e-03  6.6176995576265876e-03  -4.8057414562563717e+03  5.2026980998226766e-03  4.8698879618744228e-03  1.9009899713597205e+05  2.9057177711885240e-03  7.4365049777370094e-03  4.0413237346259446e-03  -1.7240649071779267e+03  1.3232833799354228e+03  1.4143146180738166e+04  3.3314711812595024e+03  4.3034087985884652e-03  3.8234298028061444e+03  4.2572776287643794e-03  2.9470910273661204e-03  3.4342831844464306e-03  7.4376617477865060e+04  5.9063977732524619e-03  2.9606654036292064e-03  3.8195907858545935e-03  5.7245640306180373e-03  1.432717001362125