<?xml version="1.0"?>
<VTKFile type="UnstructuredGrid"  version="0.1"  >
<UnstructuredGrid>
<Piece  NumberOfPoints="6486" NumberOfCells="12696">
<Points>
<DataArray  type="Float64"  NumberOfComponents="3"  format="ascii">0 2.5 0  0 0 0  2.5 0 0  2.5 2.5 0  1.25 0 0  2.5 1.25 0  1.25 2.5 0  0 1.25 0  1.25 1.25 0  0 0.625 0  0.625 0 0  0.625 2.5 0  0 1.875 0  2.5 0.625 0  1.875 0 0  2.5 1.875 0  1.875 2.5 0  1.770833333333333 0.7291666666666666 0  0.7291666666666666 1.770833333333333 0  0.9375 0.625 0  1.875 1.5625 0  0.642361111111111 1.163194444444444 0  1.341594827586207 1.883979885057471 0  0.46875 0.46875 0  2.03125 2.03125 0  0.3626104797979798 1.513178661616162 0  1.381740196078431 0.4564950980392157 0  0.9375 2.172619047619047 0  2.172619047619047 0.9375 0  2.096354166666667 0.4036458333333332 0  0.4036458333333333 2.096354166666667 0  1.684027777777778 1.163194444444444 0  0.3418803418803419 0.8693910256410255 0  1.642742622813391 2.162164207604464 0  1.275619849389031 0.8465650753054845 0  0.9136284722222221 1.434461805555556 0  1.732437511238546 0.3406962303960658 0  0.9714402568595876 1.029779313093998 0  1.52281746031746 1.485615079365079 0  2.1875 1.71875 0  1.06819722569879 0.2997236128493951 0  2.136114211309524 1.303478422619048 0  0.3125 0 0  0 0.3125 0  2.5 2.1875 0  2.1875 2.5 0  0.3200021620376328 1.192323085056694 0  0.6738456129277992 0.8304377375553881 0  1.757891808928991 1.861952730357003 0  1.5625 0 0  0.9375 0 0  0.3125 2.5 0  2.1875 0 0  2.5 0.9375 0  0 0.9375 0  0 1.5625 0  0.9375 2.5 0  2.5 0.3125 0  0 2.1875 0  1.5625 2.5 0  2.5 1.5625 0  0.7448220909826522 0.3003573636608841 0  1.027298850574712 1.871151477832512 0  1.331260495098891 2.197262878816185 0  1.207917681892289 1.582765010956622 0  0.4339993447432606 1.801186844743261 0  0.6337298768939392 1.443093039772727 0  2.049851190476191 0.6826636904761904 0  0.6584821428571428 2.219122023809524 0  1.89575676467455 0.9798457973793544 0  1.437570562095628 1.059380588255917 0  1.502090052505845 0.6987070896496241 0  0.2040860661083546 1.705323965099331 0  0.2083333333333333 0.46875 0  0.5070952039991439 0.2211150679997147 0  0.6916302856529919 0.5813591430410241 0  2.265625 1.953125 0  2.2265625 2.2265625 0  1.886424081252096 2.243391360417365 0  1.40625 0.202164758520858 0  0.2269345238095238 0.2269345238095238 0  1.152730869673694 0.5225850378741401 0  1.885631899587912 1.312095130148776 0  1.614808884009367 0.9049784971014416 0  1.890095442220658 0.5126535558463003 0  2.323168682795699 0.46875 0  2.268811725689575 0.2304742875213018 0  0.6002389442105756 1.967426444210576 0  0.1768313172043011 2.03125 0  0.2311882743104251 2.269525712478698 0  2.03125 0.176831317204301 0  2.280262553344767 0.6954945504579233 0  1.979219539285994 1.809922269642997 0  2.336309523809524 1.09375 0  1.09375 2.336309523809524 0  0.9314042474388009 1.662973812215543 0  0.1634067999087722 1.40625 0  2.337090640094896 1.40625 0  1.141616997467638 2.069311773587991 0  0.46875 2.338939559681489 0  1.542440307908715 1.734944797244472 0  1.556713687786879 1.956977865354753 0  0.8264238995344066 1.975424467820646 0  1.466326331454725 1.275271369760862 0  1.655675324257095 0.5444159974393489 0  0.3385416666666666 0.6479255698005697 0  0 0.78125 0  0.5236073939200119 0.984090461540625 0  2.091665741047893 1.519793517904215 0  1.71875 2.5 0  0.5356538886262603 1.623137930505009 0  0 1.09375 0  0.1932884281517095 1.015625 0  0.8569313582417669 1.2198915584249 0  0.8876981284879677 0.8329884081524883 0  1.115618488474214 0.7219586973356271 0  1.186950366204949 1.043465130075318 0  2.057459118787237 1.110823087309335 0  1.830651283878689 2.049810069572418 0  1.689107969301489 1.367247437031697 0  0.4921048768039656 1.298643370653124 0  0.8213975694444444 2.336309523809524 0  2.03125 2.5 0  1.049729400480002 1.283723261332814 0  1.308101375801673 0.6489479469700392 0  2.5 2.34375 0  0.4968777175037714 0.7562964879736076 0  1.40625 2.5 0  1.501347663534097 2.307027627307738 0  1.602813712048603 0.1926218191360736 0  0.8393082906308107 0.463778306132633 0  1.682663349152719 1.598471865581041 0  0.7774174680851571 1.560004941327907 0  1.554204170364662 0.3898593897892066 0  1.842184459051087 0.186443880058197 0  1.358107417651776 1.696381759610015 0  1.18859291992392 1.77598670078022 0  0.1875331222687418 0.7609599743339348 0  1.339536743965101 1.422080365801479 0  0.7788179348750389 0.9955343414928611 0  0.9062978492805438 0.1919636509126373 0  1.256007360640958 0.3160320559396114 0  1.09375 0 0  1.174986727221844 0.1594990293443933 0  2.34375 1.796875 0  2.318026474511116 1.589177949022232 0  2.34375 2.5 0  1.672742954892153 2.332882724550692 0  0.2683637361947215 1.874801596909639 0  2.174770749820102 0.5581009131310781 0  1.443279522965991 0.8870068372898454 0  0.3385416666666667 0.3571428571428572 0  0.78125 0 0  2.060421048269335 2.314363248763811 0  1.088078737088509 0.8967352118723447 0  1.087825368444708 1.454931510884769 0  2.018308232129541 0.8548495425854904 0  1.943987311736842 0.3246298523011434 0  1.71875 0 0  1.85337849796276 1.144833312386208 0  2.3486328125 2.1044921875 0  1.407588788651747 2.042968789119587 0  2.336309523809524 0.865366648092144 0  2.34375 0 0  2.5 0.15625 0  0.15625 2.5 0  0 2.34375 0  0.1638044648294291 1.242263417405867 0  0.356216654757926 1.032569427322806 0  0.3188217956111817 1.355736727000647 0  0.5924956460852111 0.36112522004736 0  0.6594216488965849 0.1603472116132387 0  1.841804599497131 1.72214349266521 0  0.15625 0 0  0 0.15625 0  2.115898634821499 1.894570904464496 0  0.7821877980253907 0.7129993435924866 0  1.003820447087786 0.4516053462784233 0  0.477562948779147 1.138333049293613 0  0.719493678605015 1.305655360135975 0  0.9772457618587566 2.020350128938537 0  0.8764738248887107 1.826219722709673 0  1.254787875123819 2.339010653832026 0  2.343597354852534 1.249982759769001 0  0.78125 2.5 0  0.46875 2.5 0  2.5 1.40625 0  1.09375 2.5 0  2.5 0.78125 0  2.5 1.09375 0  2.03125 0 0  2.5 0.46875 0  1.40625 0 0  0.46875 0 0  0 0.46875 0  0 1.40625 0  0 1.71875 0  0 2.03125 0  2.5 1.71875 0  2.5 2.03125 0  2.005424054645407 1.653223486966518 0  0.1538730573856537 1.559850281736677 0  2.33984375 2.33984375 0  1.166539506212474 1.922878979538754 0  0.3914885633949916 1.65887232812171 0  0.5795503163042564 1.766243562569382 0  0.399533125920212 1.946786875081388 0  0.7866324979014098 2.127719094551316 0  0.3654683023546834 0.1495701132219454 0  0.1527388747131078 0.6116379440619215 0  2.013737577140188 1.391056634712135 0  1.17635437372994 2.213329084238133 0  1.737118141866284 1.010577140843115 0  2.200707118087222 1.164723314085963 0  1.697018908736685 1.993548551451517 0  0.5387621649009668 0.6070503962352419 0  2.032805785855952 0.5330427622570983 0  1.082699501358059 1.667818725183932 0  1.503819781540653 0.5468420196858188 0  2.015409142866072 2.175941657590429 0  1.752057611265444 0.869642097111018 0  0.612251684107783 2.356045720700959 0  1.902817102342857 0.6607642211999982 0  2.159616561739693 0.7867739969338844 0  0.5120038350106624 2.197302352398502 0  1.888200216011548 1.919501662489862 0  1.495909909726654 2.16028358757309 0  0.489139876703609 1.443203008943564 0  0.8819175670410521 0.3301172743913011 0  1.882591144370812 0.8155965192707721 0  1.133979796994841 1.172526771862882 0  2.206217447916667 2.084147135416667 0  2.20361328125 2.36279296875 0  1.395746985657004 1.556054166359645 0  1.704383111516207 1.734750450338683 0  0.9575737847222222 2.36274223823052 0  1.035150984253136 0.1302833343179028 0  1.383966125325753 0.7651479963479179 0  1.64003252158672 0.6824316405528895 0  2.22550785055421 1.487078576356817 0  1.760964431499756 1.48495222505201 0  1.276460980673788 2.004207003584658 0  0.1341477688427096 1.828777507920502 0  1.542261434180652 1.155296658359034 0  1.334627911613854 0.9696897472490321 0  1.30794231473696 1.119420615785191 0  0.7028260459857245 0.4438906910721139 0  1.625757433094055 1.84268057552138 0  0.9818707849053143 1.165603626132254 0  2.0086489901463 1.243134585689553 0  1.934584460420609 2.374094051915812 0  1.798434376789567 2.38671361912528 0  1.206314791201715 1.382064292497919 0  0.6333752893366955 0.7023738550008095 0  0.7796219811205605 1.42573253164258 0  1.564399711917382 1.026040828857629 0  0.3385416666666666 0.4889012896825397 0  0.1041666666666667 0.390625 0  0.989112246382566 1.543537365516289 0  2.025724425454636 0.9846960595520872 0  0.6602885475034063 2.086117390485779 0  1.607130551925032 1.267198646640915 0  0.1317864544877056 0.8896173683400176 0  1.755387840017567 2.230364320056445 0  1.301540702984401 0.1216289692748247 0  1.433170657577442 0.3331052752740999 0  1.500459610550388 0.113513924782439 0  0.6494291520606965 1.029586599619295 0  1.010146149868299 0.794897284196169 0  0.3700844198238017 2.235390157870766 0  0.3360891767780704 2.36656279435396 0  1.876856241037701 1.437150669863757 0  1.778674102957329 1.245979347269706 0  0.5472829890977179 0.1005517127039925 0  0.4669074189005698 0.3416784232954367 0  1.472765289289269 1.850899166481903 0  1.555853593327178 1.608452097912802 0  0.6708955559113426 1.646561631116984 0  0.8164699620322933 0.5924479455478063 0  0.3167738989468366 1.758696809749795 0  0.2788007305565096 1.605499483471246 0  0.7821720982350511 0.181524936294752 0  1.376812251214195 2.313340247908297 0  1.785652202614777 0.5962261755537186 0  1.761467296310972 0.4679567244718574 0  2.2265625 1.8359375 0  2.3828125 1.9140625 0  0.5279531607054191 2.071552361614785 0  2.397573269551114 0.234375 0  2.383578172599618 0.3589298466020009 0  0.1024267304488855 2.265625 0  0.1164218274003825 2.141070153397999 0  0.2696857594953064 2.135405441512016 0  2.164961300137334 0.1375322943529536 0  2.137757548369486 0.2724194778647587 0  2.238873711826398 0.3626419179496562 0  0.1001414910226386 0.234375 0  0.2176339285714286 0.3478422619047619 0  0.2503620791333544 0.1061694061057066 0  2.336445461915368 0.1250451055247424 0  0.2154004640409726 2.3918124
[...]
<PointData  Scalars="f_124-3"> 
<DataArray  type="Float64"  Name="f_124-3"  format="ascii">2.9187678620517823e-02  3.3667086905320662e-05  2.1287694038589184e-05  1.2058365455977159e-02  2.9667975789908323e-05  4.6966786984794346e-05  2.9128200783940073e-02  2.9196783048088586e-02  1.1673703135610893e-02  2.9091661829881783e-02  3.4298935553108978e-05  2.9187863261365077e-02  2.9192121584959315e-02  2.0791277691343093e-05  2.5211097861088902e-05  1.7872946627822328e-03  2.5692215054200031e-02  3.6781439859439717e-05  2.9167289381857670e-02  1.7094953187312208e-03  4.5591954761432466e-03  2.7856695997300365e-02  2.5870358860984925e-02  9.0516583963889570e-03  1.2273235833988884e-02  2.9197618878691305e-02  3.3231139320895655e-05  2.9172614776617013e-02  3.0266595572824911e-05  2.3527401891949116e-05  2.9190602230041444e-02  1.3435858604973531e-03  2.9051423519564249e-02  2.4963914474726932e-02  1.3218986957127395e-03  2.6775782668699274e-02  2.6079966160735908e-05  1.3368775331725587e-02  1.0847125294875956e-02  2.6796700071849747e-03  3.5468483220512330e-05  3.4353650547285170e-04  3.5320110162324711e-05  1.0524474027955541e-02  6.0000975577049918e-03  1.9501839813429536e-02  2.9220068647005302e-02  1.8061147582996203e-02  1.5005438580442983e-02  2.7302263198021866e-05  3.2072040513711059e-05  2.9187635671872391e-02  2.3086221477332736e-05  2.1395371104534639e-05  2.9198252012771986e-02  2.9194573525199510e-02  2.9186734508193500e-02  2.1008928259627817e-05  2.9189815512957580e-02  2.8514616510607636e-02  3.3451345473256127e-04  1.1021171556845645e-04  2.8788604208331656e-02  2.8562387869837825e-02  2.3182481090869976e-02  2.9193450156077435e-02  2.9072642129370288e-02  2.4385016690598262e-05  2.9189852847516188e-02  1.1058241717887123e-04  2.3148214791982929e-03  9.2733292506779629e-05  2.9193583927515560e-02  2.1303275025342981e-02  1.9642155203257217e-04  5.3104799269898043e-03  5.1330890480934897e-03  1.2277143866266250e-02  2.1436497616371765e-02  2.8525156733810584e-05  3.2798375871088783e-03  1.1585949347488707e-04  1.2470694024268756e-03  3.0092982189436004e-04  2.5067883707437650e-05  2.1888929004250553e-05  2.2407642115156552e-05  2.9192140808765029e-02  2.9190985473889753e-02  2.9189212938290774e-02  2.4062810693383979e-05  2.2254706852416857e-05  7.8220624745744208e-03  3.6102069814672422e-05  2.9154084390647816e-02  2.8494394604442339e-02  2.9196014635352367e-02  2.4913814128497302e-04  2.8887079062608814e-02  2.9188803094814388e-02  1.7756751630405951e-02  2.2918924921699006e-02  2.9173215961827436e-02  6.1015132844297205e-03  2.8547516503000945e-05  2.6282805797730239e-02  2.9193121457711389e-02  2.7761510551693670e-02  1.4987432112147318e-03  2.7472667556254989e-02  2.9195470042277676e-02  2.9197662165639054e-02  2.9225925743088264e-02  2.4155761760214632e-02  8.5303435061331468e-03  1.2214458436505897e-03  6.8538239244919719e-03  1.3208698255044913e-04  1.7982591566801071e-02  3.8972839319771041e-03  2.9166056547333785e-02  2.9188450549760745e-02  2.2810431520775172e-02  1.9725035237874902e-02  1.6663815462134748e-04  9.1366804436575459e-03  2.3560440039353446e-02  2.8967882444748832e-02  2.8123882773193120e-02  2.7025574398790630e-05  5.9268806460588852e-04  9.5115799343432981e-03  2.8910575901075312e-02  2.7786905210074590e-05  2.5256165204430055e-05  2.1926976316943899e-02  2.6889353592246274e-02  2.9439655866327553e-02  1.4312716278220453e-02  2.0044131102579285e-02  3.3726974347529012e-05  3.0723476944179528e-05  3.0856991581873811e-05  3.0464988967762137e-05  2.0769069723834592e-03  8.3209302916524292e-04  1.5374666301351050e-02  2.6708689143634425e-02  2.9192307159568592e-02  2.2890932189460500e-05  6.8382037913222314e-04  9.2601369224036695e-03  3.3180962912288537e-05  1.8858395231975335e-02  4.9468967141474878e-03  2.3299886628914676e-02  3.2305775952108045e-05  2.4575801199186603e-05  2.6269232345613851e-05  4.8508664220283900e-04  6.6792459199088057e-03  2.6923364718395779e-02  2.2417869452031739e-05  2.2176023497885287e-05  2.1196837712878922e-05  2.9187667201094468e-02  2.9188545599873050e-02  2.9198500749756964e-02  2.9217166521872076e-02  2.9202298867888981e-02  1.0936893334598419e-03  3.9607826084555262e-05  8.8611974464191424e-03  3.2879336241994088e-05  6.2181259535971066e-04  6.8023906499667724e-03  7.3409312383407727e-03  1.5408926412151182e-04  2.9035307672012466e-02  2.8108155241164737e-02  2.9105021865713541e-02  2.9068885527114365e-02  2.9034029426969369e-02  8.1373253066552965e-05  2.9187847431727379e-02  2.9187681306199812e-02  1.1638917852187975e-04  2.9176025061023392e-02  2.0862278618446993e-05  2.5321901379361949e-05  2.4181705510797188e-05  2.0854180880124105e-05  2.8364432672564868e-05  3.5373049995628624e-05  2.0927498191038209e-02  2.9195745101576784e-02  2.9193409971879112e-02  2.9191047057925041e-02  8.2125379177357192e-04  3.5373117709116696e-03  3.9537834232255759e-03  2.9194640869614357e-02  1.2275807754252055e-02  2.8292586284561792e-02  2.9195134012584043e-02  2.9193836827471325e-02  2.9191869478078863e-02  2.9188199794632181e-02  1.2069497743026378e-04  2.9599336019945351e-02  1.0811975626428881e-03  2.9024458223102661e-02  3.4138560256278448e-04  8.7448276031773658e-05  2.0089381094460654e-02  1.3749087732328909e-02  2.3997652366878969e-05  2.7084550082323040e-02  3.4565565520895519e-05  1.6517466844898670e-02  9.3836672696140234e-05  2.9188745670780437e-02  2.6188343081409857e-05  2.4050164463962246e-05  2.9189931631122403e-02  1.3018258730745311e-02  2.7089967576683381e-02  2.9198211885218303e-02  7.7772144341486436e-05  3.7884733912995174e-05  1.2950504913877477e-02  9.3135925985770862e-03  1.6223621519103025e-02  1.6755497240823338e-02  1.3005937128193062e-02  2.9184128430205292e-02  3.1533342827777449e-05  3.3811578773570696e-04  4.2895531318210540e-05  7.0319263343114179e-04  5.0723334695519286e-03  2.7959691388965983e-02  2.9192637049893139e-02  2.4523446256579993e-03  2.1802308963505780e-03  5.8039454322051124e-03  1.4258734871358985e-03  1.8203055334520869e-02  1.8352078047758728e-02  4.6116263802601325e-04  2.2922426547429511e-02  2.5665144449000837e-02  1.7684006898237417e-02  1.3951306250200244e-02  2.8390854233123340e-02  9.8740262076972302e-04  1.9295716915944904e-02  1.5823065403028844e-02  2.7044968672672979e-02  6.0369703301981734e-05  2.9190895721957603e-02  3.3887378369962563e-03  2.9237111909637264e-02  2.4101918556208690e-02  2.9308479900104733e-05  2.8708645101038472e-05  2.7744301954773411e-05  2.5765150394630499e-02  3.9767293146363153e-03  2.9189549284881534e-02  2.9188497576277204e-02  2.4976825941237092e-03  1.4088519976624206e-03  3.7293293436834947e-05  2.5439992773365928e-03  2.2521313090651408e-02  1.3378611359050895e-02  2.9163359919787839e-02  2.8838060655749457e-03  2.9193347552677256e-02  2.9194689918353677e-02  3.6891032937186158e-05  2.8724550279133836e-02  2.7093030424616686e-05  2.6072925310126630e-05  3.8369077759043838e-03  2.9611123466505612e-03  2.9191021047135505e-02  2.1540563583125762e-05  2.1586683197978598e-05  2.9189244342979637e-02  2.9190243625947097e-02  2.9190271747094466e-02  2.3164635255269565e-05  2.3315791690649693e-05  2.2622747894237461e-05  4.6497342136967374e-03  1.3194227295477303e-02  6.4940492842144887e-05  2.2038091415714592e-05  2.9188275286205149e-02  2.9139630269546479e-02  1.0251447651552203e-04  2.6191674297219461e-05  5.9777455713241466e-04  4.1397906935534502e-05  6.3183138662991294e-05  2.9191401658461468e-02  7.3188563690884329e-03  2.4661579035842447e-02  2.9191677058201353e-02  2.4757412186193567e-05  2.1555334724576123e-05  2.1520775670964085e-05  8.6201000424944389e-03  4.6368816934976272e-03  2.9187038105999250e-02  2.9192756078126113e-02  2.0514831325439705e-04  1.5654769984388653e-03  6.8776650624676697e-03  2.5313092319670161e-05  2.7317375552083592e-02  2.9031772045672428e-02  2.8659577536496873e-02  2.3132512816487827e-05  3.2787096358284737e-05  4.1120462184506710e-05  2.8684003185015450e-02  2.9209729429616325e-02  2.3886498023861962e-05  2.9349458836936446e-02  2.8819838169764397e-02  4.4195189795633010e-03  1.0143254427714346e-02  2.4316476858858192e-05  2.9143319861861416e-02  2.9196657987788172e-02  2.9196351452105685e-02  2.7906466863114696e-04  2.1908969640777561e-04  1.9330785985117210e-02  2.6767096424973512e-05  8.5868178103086246e-05  1.8100578281635034e-02  2.5679010576837433e-05  7.0046947399651077e-04  2.3849458572945161e-02  4.7660682417853704e-03  2.9188440717000143e-02  2.4225386862933837e-02  2.8896021213476310e-02  1.8777370316733630e-02  2.6887419109940920e-02  2.6976579069602830e-05  2.9194022209969701e-02  2.9197517096083311e-02  9.5002894430861904e-05  3.8361650990847282e-05  2.9014015666193885e-02  2.9188204162654899e-02  1.2185069996941616e-02  2.7459013371666638e-03  6.9038253899388492e-04  5.1565123102532750e-05  2.0092917568388019e-02  2.7656972010623938e-05  2.1642774151776335e-02  2.9172165893215602e-02  2.9095870505477409e-02  1.0332620958030924e-02  2.9195239996788861e-02  1.2802041964022702e-03  1.3231482063953240e-02  1.7910700309506589e-02  1.2620067156818529e-02  3.5491425353626075e-03  2.8643186136176418e-02  2.4176912251544880e-02  4.7217074772547916e-03  1.2234189812691405e-02  8.7424950650644515e-03  2.7547766413096323e-05  2.6941698493157834e-02  2.8044164976547152e-02  2.5425694606253615e-02  2.8872290453843340e-02  2.9114135813430420e-02  2.6165010652415440e-05  2.8198807855950119e-02  3.7546005138935734e-05  1.5981418169333649e-04  2.9187295631940773e-02  2.9303107849697238e-02  1.3942456578908646e-02  7.8761488319495435e-03  1.0682502067705464e-02  2.6809116507240623e-05  1.5787692101149264e-03  2.3709704712950176e-02  2.3652247733211430e-02  2.9202652774621599e-02  1.5877385733751375e-04  5.4205806771212397e-05  1.8941302064280359e-02  2.0768715563367380e-04  2.7972791464018782e-02  2.9168744378745840e-02  2.3612294383962121e-02  2.1640228370326948e-05  3.0558589843098866e-04  7.0701523917392954e-04  1.9954475934513289e-03  2.2849724377928240e-05  2.9195208499059627e-02  2.9198593115224342e-02  2.4736822296890161e-03  2.1627821049494716e-02  2.8204224565967471e-02  2.9187743958602349e-02  1.5683142284804916e-02  2.5386641002655783e-02  1.0580444104426422e-02  2.6927100408010683e-02  2.9118663927252601e-02  2.9205929557556645e-02  2.9192765593463513e-02  9.0407541419431393e-03  1.6659387124652793e-02  1.4582645196815612e-02  3.3700131281759267e-05  2.1285414887005531e-02  2.9187645536279078e-02  2.9189178241701350e-02  2.3974716888076748e-05  2.9787354515777087e-05  2.9189434033063580e-02  2.8502105749759727e-05  2.5831185867411434e-02  3.3836855537601632e-05  2.2261269353051317e-05  2.9193333707588077e-02  8.5961186946080567e-03  2.5483935483399332e-05  1.5678410059220983e-02  1.9962929560817029e-02  1.3614731380709764e-02  1.1613951975375675e-04  3.8357613292430274e-05  2.2636074325715689e-05  2.5629510251012497e-02  2.9201289917275750e-02  2.8175984207105941e-02  4.7353474639765386e-03  2.3993164450995328e-05  2.9183792480432614e-02  1.9610498710080837e-03  2.6435834158612982e-02  2.0113057009581138e-02  2.9251190987940344e-02  2.1253123795078589e-02  3.6088923037884838e-05  2.9203276692699748e-02  2.3587813055234619e-05  2.3825349041546764e-05  2.9204942590870812e-02  2.9182357520304996e-02  2.8768474767694428e-02  2.8744221155368850e-05  2.9213470776456873e-02  2.4615734236485333e-05  3.4199573318203987e-04  9.9979450019897190e-04  3.1279176799067502e-05  3.0408344866671662e-05  2.9245866661982196e-05  2.5173490095966245e-02  2.7050464717863942e-02  2.1417085032089379e-02  5.4935118333333524e-05  2.9187650010784917e-02  2.0345035347488986e-02  1.5639574309053741e-02  2.9189264498638907e-02  2.8829929544241635e-02  2.8121000501147787e-02  2.0072165983453195e-03  3.1543083417352899e-05  2.7154154855186203e-02  2.9190515790855066e-02  2.9040026722265491e-02  2.9358312394084809e-05  2.8070867107691730e-03  6.5296911829169262e-04  2.0983574287588650e-05  4.7376952413390866e-04  6.1248297663362415e-04  2.1286684435058295e-02  2.9191985347127965e-02  1.1195648773417959e-02  2.4578843323959243e-05  1.2781037093384038e-03  8.7446214991328472e-03  3.5678159926985893e-05  2.0789549714902023e-05  2.1287430040095769e-05  2.9177988231564162e-02  3.2122940396320258e-05  2.9192729480333253e-02  2.9192918994666486e-02  1.3720121033006621e-04  2.1566999346767063e-02  5.9679802139871841e-05  2.8106527682099588e-02  4.9295066920466675e-04  2.8886715085762588e-02  2.6671072023014232e-04  2.9192763324388363e-02  2.9191727383667550e-02  2.9188125060005992e-02  2.9188264271812914e-02  3.0834468179543253e-05  4.8055764794379532e-05  7.7427106559828530e-03  2.2336005184014636e-05  2.9189632536769032e-02  2.9162383494732803e-02  6.0329009459213179e-04  2.5608657205230520e-04  5.7454045767264920e-03  2.9191053828159730e-02  4.5858100958260364e-03  2.3499073598465992e-05  2.9955694055329617e-05  2.0819009008121162e-05  3.4507551449389733e-05  2.5698130754746000e-05  5.2894520200472188e-05  1.8424423862895682e-03  3.4172575507617985e-03  1.1666260200440507e-03  2.1262229068735074e-05  2.9050980656767294e-02  2.3362909750096177e-05  2.9234897880594555e-02  2.9198505349413144e-02  4.8924435383487710e-04  2.6073461739310470e-02  2.6976339733915632e-02  2.1667174137911601e-03  6.2424369538582117e-03  9.3450287272870431e-03  1.1167468013449564e-03  1.3814183841321882e-03  2.2079561018578364e-05  2.9189864488294186e-02  2.8918706623105844e-02  1.5258535405068987e-04  6.1958745509366961e-03  2.9172357907329301e-02  2.2594417514888247e-05  7.3498252916323840e-03  1.7224438286449591e-02  8.2317736140938604e-03  2.8269262987742981e-02  2.1539860937085107e-05  6.8021859862713819e-03  2.9197888904377151e-02  2.1243915780859995e-05  2.9188769775561854e-02  2.7698486009019015e-05  3.0275637616720562e-05  2.7537789873956352e-02  9.5114901957119944e-03  1.4309547453942617e-02  2.4063518227681796e-02  4.6023456905553107e-03  2.9353706617255722e-02  2.9191452090348194e-02  2.4217048658351305e-02  1.1293041252517634e-04  2.1730239541231452e-05  2.9111910531720461e-02  1.8429165102043964e-02  5.2715383895602813e-05  8.2203983174912251e-05  2.5066293839854010e-03  1.3447235445795310e-02  2.9267401541645505e-02  2.8874753052030383e-02  1.5936061846780286e-02  2.9211153306730998e-02  4.4435260530763156e-03  8.9768462767283883e-05  3.9063569468505613e-04  6.6070857743482099e-05  1.0169123606152903e-03  2.9197915524130376e-02  4.8557412812636061e-04  3.4968825506845154e-05  7.2351013402653782e-05  3.9073222502009610e-03  6.1379408155345211e-04  2.7997076640097192e-05  2.2454704876770568e-05  1.7874528370438625e-02  2.5498918547003223e-02  3.2315583465283588e-03  2.9199836689115938e-02  1.0806148093607833e-02  1.2279451975851270e-02  5.8594683470382952e-05  3.1517407858989464e-05  5.6241376867185297e-03  2.2415435266291930e-05  7.0419364343089173e-03  2.6814563916110697e-02  1.6325282956690206e-02  3.0053062828132317e-03  6.5019519655946136e-03  2.3030055496703122e-04  2.8860383485447939e-02  2.9110984622688876e-02  3.3436749793526952e-05  3.8295134992635151e-05  9.3621436483570745e-03  2.8988201712971390e-05  1.1173936606539342e-02  1.1735530592076378e-03  2.9190347850055910e-02  2.1183921968205255e-05  8.0348282483375354e-03  1.2435128328101815e-02  2.2187162373127388e-04  2.5691547230553800e-03  2.8686533312599807e-02  4.8489749749647230e-05  2.4440405964668396e-02  4.1362097093079617e-05  2.2868930974411791e-05  2.3948994158576691e-05  3.2513821600383530e-05  8.1545512235825973e-05  2.3679109699414589e-02  2.9193871628736288e-02  2.9183259815617667e-02  2.9183903168485906e-02  2.8960725059655194e-02  1.5050484407830677e-02  2.6197655074176452e-05  1.0679436502126879e-02  2.0937308551863369e-02  2.4044220348601864e-02  1.9512543480810374e-03  1.4005709629551590e-04  5.9057346484966797e-05  2.9190375473466406e-02  2.9196974840372019e-02  2.8879031852069137e-02  4.2777597283039743e-04  3.0233724234323185e-05  1.7510052610995988e-02  2.9187661765272398e-02  2.1234983114314526e-02  2.9188058564071018e-02  2.9187698472057703e-02  2.9067553405398325e-02  2.9194016488670330e-02  2.9187895920458836e-02  5.4090288744273356e-04  2.5668907753879211e-05  2.6799984728920471e-05  3.2015659227850284e-05  6.9692576971951576e-05  2.0361409830988995e-04  2.9197975345628593e-02  2.9197230047521693e-02  2.9196307087076049e-02  2.9158593812860952e-02  2.9170157272266874e-02  3.2614650001893635e-05  2.4708990779762163e-05  2.9191637809696198e-02  2.9187640341858740e-02  3.4238852112936811e-05  2.9189124281382720e-02  2.1090887951902256e-05  3.4920088296294238e-05  2.7883861813809593e-05  4.7105004203316187e-03  1.5760677227885805e-02  2.6645052844171489e-02  7.4898819843365804e-03  1.0876735747376480e-02  1.3439242992371292e-02  2.9195111134682917e-02  2.8782866140297392e-02  2.6466024560267157e-02  1.2022740145702735e-03  4.6226498903295379e-03  2.0925975467843762e-05  2.9223688341556288e-05  2.8850970081035331e-02  2.7590893338221723e-02  2.9188150726548439e-02  5.4653136890719429e-05  2.9097562695051617e-02  7.3781050685469418e-03  1.8844796783707988e-02  1.2277886398456547e-02  2.5474224681701321e-03  3.6583693736499309e-05  1.6197148888030911e-02  2.8781292530960973e-02  2.9191199910537098e-02  2.6755466339994351e-02  2.3550855029401212e-04  2.9153022691518045e-02  2.9195359260275677e-02  2.9194636755878790e-02  2.9194237864128558e-02  2.9196883212787680e-02  2.9587102606029207e-02  2.6399196406761184e-02  5.1794393205198489e-05  2.1118011484582633e-02  2.9001988850863712e-02  1.7753814178355943e-04  1.8669787793657400e-02  1.7554299483508765e-04  2.9195125267021789e-02  2.9010490680438105e-02  1.5546821568912133e-02  2.9164303966829768e-02  1.4329712302330377e-02  2.9149961000300123e-02  3.3327051786711151e-05  2.4066346003634494e-02  2.0700856479781506e-02  2.4754414747804176e-05  3.0399528877620688e-05  2.6300638032748121e-02  2.6112204280034955e-05  2.2906597225025030e-05  2.8082352091597675e-02  7.1623954274751980e-04  3.2539063039251177e-03  2.3458473741730956e-03  3.5749645058605842e-03  1.3726512080288306e-03  2.9192535386459623e-02  2.9183097572850432e-02  2.5765853425611333e-02  1.4452175136791319e-03  8.4285909533143974e-04  1.1649892511066699e-03  5.8323919800961418e-04  2.9190359081898792e-02  2.9195772064315690e-02  2.8555106383426097e-02  2.9194156599942778e-02  6.1831911382527092e-04  2.9192609217153859e-02  2.9192084977204425e-02  2.8603717954501680e-02  1.2869296677948351e-03  2.8272897649077380e-05  2.5703786463999361e-05  2.9190812034835704e-02  2.8691995815633715e-02  2.9195734292471447e-02  2.9196711467683836e-02  2.9194348157183442e-02  6.3248459622281036e-03  2.3048361407153360e-05  2.9117492026210265e-02  2.9032232337750482e-02  2.9189846755540573e-02  2.9190018920210309e-02  2.9189441344481752e-02  2.7299018937885340e-02  7.8668246848338699e-03  2.8236764135180728e-05  9.6480729735371785e-04  2.1555761837286445e-05  3.7909823846996932e-04  2.8066320433876472e-02  2.8857043156528144e-02  2.9204370145295217e-02  4.6725987779230290e-03  2.4281906611343663e-05  7.9323578895474003e-03  2.9084420964467554e-05  2.5739916929000912e-02  2.6658516712387136e-02  2.4921229480282491e-05  1.3840578175745088e-02  1.8872532439205413e-02  3.4346931880866495e-03  2.3969631452049320e-05  2.9188017636700290e-02  2.9201722445413657e-02  1.9603490987627602e-02  7.1067166224532911e-03  2.9206783713668995e-02  2.1919296342892851e-02  1.9107658961717868e-02  2.9187098320400989e-02  2.1983314160022706e-05  5.5033567166473319e-05  2.5291961951032369e-02  2.9165862755522045e-02  2.9189984066554188e-02  2.9189307702590823e-02  2.9188214042169605e-02  2.4536399431917782e-05  2.9187955583408184e-02  2.5447838807700021e-05  2.2367853409460532e-05  1.8077882714988343e-02  2.9190523086478300e-02  2.7321002408191222e-05  1.3716910558071397e-02  2.3664430024220767e-05  2.5112599807447431e-02  2.9189096248415668e-02  2.9189655539716388e-02  2.9190164548051418e-02  2.9188956601464144e-02  2.25530899653