<?xml version="1.0"?>
<VTKFile type="UnstructuredGrid"  version="0.1"  >
<UnstructuredGrid>
<Piece  NumberOfPoints="6486" NumberOfCells="12696">
<Points>
<DataArray  type="Float64"  NumberOfComponents="3"  format="ascii">0 2.5 0  0 0 0  2.5 0 0  2.5 2.5 0  1.25 0 0  2.5 1.25 0  1.25 2.5 0  0 1.25 0  1.25 1.25 0  0 0.625 0  0.625 0 0  0.625 2.5 0  0 1.875 0  2.5 0.625 0  1.875 0 0  2.5 1.875 0  1.875 2.5 0  1.770833333333333 0.7291666666666666 0  0.7291666666666666 1.770833333333333 0  0.9375 0.625 0  1.875 1.5625 0  0.642361111111111 1.163194444444444 0  1.341594827586207 1.883979885057471 0  0.46875 0.46875 0  2.03125 2.03125 0  0.3626104797979798 1.513178661616162 0  1.381740196078431 0.4564950980392157 0  0.9375 2.172619047619047 0  2.172619047619047 0.9375 0  2.096354166666667 0.4036458333333332 0  0.4036458333333333 2.096354166666667 0  1.684027777777778 1.163194444444444 0  0.3418803418803419 0.8693910256410255 0  1.642742622813391 2.162164207604464 0  1.275619849389031 0.8465650753054845 0  0.9136284722222221 1.434461805555556 0  1.732437511238546 0.3406962303960658 0  0.9714402568595876 1.029779313093998 0  1.52281746031746 1.485615079365079 0  2.1875 1.71875 0  1.06819722569879 0.2997236128493951 0  2.136114211309524 1.303478422619048 0  0.3125 0 0  0 0.3125 0  2.5 2.1875 0  2.1875 2.5 0  0.3200021620376328 1.192323085056694 0  0.6738456129277992 0.8304377375553881 0  1.757891808928991 1.861952730357003 0  1.5625 0 0  0.9375 0 0  0.3125 2.5 0  2.1875 0 0  2.5 0.9375 0  0 0.9375 0  0 1.5625 0  0.9375 2.5 0  2.5 0.3125 0  0 2.1875 0  1.5625 2.5 0  2.5 1.5625 0  0.7448220909826522 0.3003573636608841 0  1.027298850574712 1.871151477832512 0  1.331260495098891 2.197262878816185 0  1.207917681892289 1.582765010956622 0  0.4339993447432606 1.801186844743261 0  0.6337298768939392 1.443093039772727 0  2.049851190476191 0.6826636904761904 0  0.6584821428571428 2.219122023809524 0  1.89575676467455 0.9798457973793544 0  1.437570562095628 1.059380588255917 0  1.502090052505845 0.6987070896496241 0  0.2040860661083546 1.705323965099331 0  0.2083333333333333 0.46875 0  0.5070952039991439 0.2211150679997147 0  0.6916302856529919 0.5813591430410241 0  2.265625 1.953125 0  2.2265625 2.2265625 0  1.886424081252096 2.243391360417365 0  1.40625 0.202164758520858 0  0.2269345238095238 0.2269345238095238 0  1.152730869673694 0.5225850378741401 0  1.885631899587912 1.312095130148776 0  1.614808884009367 0.9049784971014416 0  1.890095442220658 0.5126535558463003 0  2.323168682795699 0.46875 0  2.268811725689575 0.2304742875213018 0  0.6002389442105756 1.967426444210576 0  0.1768313172043011 2.03125 0  0.2311882743104251 2.269525712478698 0  2.03125 0.176831317204301 0  2.280262553344767 0.6954945504579233 0  1.979219539285994 1.809922269642997 0  2.336309523809524 1.09375 0  1.09375 2.336309523809524 0  0.9314042474388009 1.662973812215543 0  0.1634067999087722 1.40625 0  2.337090640094896 1.40625 0  1.141616997467638 2.069311773587991 0  0.46875 2.338939559681489 0  1.542440307908715 1.734944797244472 0  1.556713687786879 1.956977865354753 0  0.8264238995344066 1.975424467820646 0  1.466326331454725 1.275271369760862 0  1.655675324257095 0.5444159974393489 0  0.3385416666666666 0.6479255698005697 0  0 0.78125 0  0.5236073939200119 0.984090461540625 0  2.091665741047893 1.519793517904215 0  1.71875 2.5 0  0.5356538886262603 1.623137930505009 0  0 1.09375 0  0.1932884281517095 1.015625 0  0.8569313582417669 1.2198915584249 0  0.8876981284879677 0.8329884081524883 0  1.115618488474214 0.7219586973356271 0  1.186950366204949 1.043465130075318 0  2.057459118787237 1.110823087309335 0  1.830651283878689 2.049810069572418 0  1.689107969301489 1.367247437031697 0  0.4921048768039656 1.298643370653124 0  0.8213975694444444 2.336309523809524 0  2.03125 2.5 0  1.049729400480002 1.283723261332814 0  1.308101375801673 0.6489479469700392 0  2.5 2.34375 0  0.4968777175037714 0.7562964879736076 0  1.40625 2.5 0  1.501347663534097 2.307027627307738 0  1.602813712048603 0.1926218191360736 0  0.8393082906308107 0.463778306132633 0  1.682663349152719 1.598471865581041 0  0.7774174680851571 1.560004941327907 0  1.554204170364662 0.3898593897892066 0  1.842184459051087 0.186443880058197 0  1.358107417651776 1.696381759610015 0  1.18859291992392 1.77598670078022 0  0.1875331222687418 0.7609599743339348 0  1.339536743965101 1.422080365801479 0  0.7788179348750389 0.9955343414928611 0  0.9062978492805438 0.1919636509126373 0  1.256007360640958 0.3160320559396114 0  1.09375 0 0  1.174986727221844 0.1594990293443933 0  2.34375 1.796875 0  2.318026474511116 1.589177949022232 0  2.34375 2.5 0  1.672742954892153 2.332882724550692 0  0.2683637361947215 1.874801596909639 0  2.174770749820102 0.5581009131310781 0  1.443279522965991 0.8870068372898454 0  0.3385416666666667 0.3571428571428572 0  0.78125 0 0  2.060421048269335 2.314363248763811 0  1.088078737088509 0.8967352118723447 0  1.087825368444708 1.454931510884769 0  2.018308232129541 0.8548495425854904 0  1.943987311736842 0.3246298523011434 0  1.71875 0 0  1.85337849796276 1.144833312386208 0  2.3486328125 2.1044921875 0  1.407588788651747 2.042968789119587 0  2.336309523809524 0.865366648092144 0  2.34375 0 0  2.5 0.15625 0  0.15625 2.5 0  0 2.34375 0  0.1638044648294291 1.242263417405867 0  0.356216654757926 1.032569427322806 0  0.3188217956111817 1.355736727000647 0  0.5924956460852111 0.36112522004736 0  0.6594216488965849 0.1603472116132387 0  1.841804599497131 1.72214349266521 0  0.15625 0 0  0 0.15625 0  2.115898634821499 1.894570904464496 0  0.7821877980253907 0.7129993435924866 0  1.003820447087786 0.4516053462784233 0  0.477562948779147 1.138333049293613 0  0.719493678605015 1.305655360135975 0  0.9772457618587566 2.020350128938537 0  0.8764738248887107 1.826219722709673 0  1.254787875123819 2.339010653832026 0  2.343597354852534 1.249982759769001 0  0.78125 2.5 0  0.46875 2.5 0  2.5 1.40625 0  1.09375 2.5 0  2.5 0.78125 0  2.5 1.09375 0  2.03125 0 0  2.5 0.46875 0  1.40625 0 0  0.46875 0 0  0 0.46875 0  0 1.40625 0  0 1.71875 0  0 2.03125 0  2.5 1.71875 0  2.5 2.03125 0  2.005424054645407 1.653223486966518 0  0.1538730573856537 1.559850281736677 0  2.33984375 2.33984375 0  1.166539506212474 1.922878979538754 0  0.3914885633949916 1.65887232812171 0  0.5795503163042564 1.766243562569382 0  0.399533125920212 1.946786875081388 0  0.7866324979014098 2.127719094551316 0  0.3654683023546834 0.1495701132219454 0  0.1527388747131078 0.6116379440619215 0  2.013737577140188 1.391056634712135 0  1.17635437372994 2.213329084238133 0  1.737118141866284 1.010577140843115 0  2.200707118087222 1.164723314085963 0  1.697018908736685 1.993548551451517 0  0.5387621649009668 0.6070503962352419 0  2.032805785855952 0.5330427622570983 0  1.082699501358059 1.667818725183932 0  1.503819781540653 0.5468420196858188 0  2.015409142866072 2.175941657590429 0  1.752057611265444 0.869642097111018 0  0.612251684107783 2.356045720700959 0  1.902817102342857 0.6607642211999982 0  2.159616561739693 0.7867739969338844 0  0.5120038350106624 2.197302352398502 0  1.888200216011548 1.919501662489862 0  1.495909909726654 2.16028358757309 0  0.489139876703609 1.443203008943564 0  0.8819175670410521 0.3301172743913011 0  1.882591144370812 0.8155965192707721 0  1.133979796994841 1.172526771862882 0  2.206217447916667 2.084147135416667 0  2.20361328125 2.36279296875 0  1.395746985657004 1.556054166359645 0  1.704383111516207 1.734750450338683 0  0.9575737847222222 2.36274223823052 0  1.035150984253136 0.1302833343179028 0  1.383966125325753 0.7651479963479179 0  1.64003252158672 0.6824316405528895 0  2.22550785055421 1.487078576356817 0  1.760964431499756 1.48495222505201 0  1.276460980673788 2.004207003584658 0  0.1341477688427096 1.828777507920502 0  1.542261434180652 1.155296658359034 0  1.334627911613854 0.9696897472490321 0  1.30794231473696 1.119420615785191 0  0.7028260459857245 0.4438906910721139 0  1.625757433094055 1.84268057552138 0  0.9818707849053143 1.165603626132254 0  2.0086489901463 1.243134585689553 0  1.934584460420609 2.374094051915812 0  1.798434376789567 2.38671361912528 0  1.206314791201715 1.382064292497919 0  0.6333752893366955 0.7023738550008095 0  0.7796219811205605 1.42573253164258 0  1.564399711917382 1.026040828857629 0  0.3385416666666666 0.4889012896825397 0  0.1041666666666667 0.390625 0  0.989112246382566 1.543537365516289 0  2.025724425454636 0.9846960595520872 0  0.6602885475034063 2.086117390485779 0  1.607130551925032 1.267198646640915 0  0.1317864544877056 0.8896173683400176 0  1.755387840017567 2.230364320056445 0  1.301540702984401 0.1216289692748247 0  1.433170657577442 0.3331052752740999 0  1.500459610550388 0.113513924782439 0  0.6494291520606965 1.029586599619295 0  1.010146149868299 0.794897284196169 0  0.3700844198238017 2.235390157870766 0  0.3360891767780704 2.36656279435396 0  1.876856241037701 1.437150669863757 0  1.778674102957329 1.245979347269706 0  0.5472829890977179 0.1005517127039925 0  0.4669074189005698 0.3416784232954367 0  1.472765289289269 1.850899166481903 0  1.555853593327178 1.608452097912802 0  0.6708955559113426 1.646561631116984 0  0.8164699620322933 0.5924479455478063 0  0.3167738989468366 1.758696809749795 0  0.2788007305565096 1.605499483471246 0  0.7821720982350511 0.181524936294752 0  1.376812251214195 2.313340247908297 0  1.785652202614777 0.5962261755537186 0  1.761467296310972 0.4679567244718574 0  2.2265625 1.8359375 0  2.3828125 1.9140625 0  0.5279531607054191 2.071552361614785 0  2.397573269551114 0.234375 0  2.383578172599618 0.3589298466020009 0  0.1024267304488855 2.265625 0  0.1164218274003825 2.141070153397999 0  0.2696857594953064 2.135405441512016 0  2.164961300137334 0.1375322943529536 0  2.137757548369486 0.2724194778647587 0  2.238873711826398 0.3626419179496562 0  0.1001414910226386 0.234375 0  0.2176339285714286 0.3478422619047619 0  0.2503620791333544 0.1061694061057066 0  2.336445461915368 0.1250451055247424 0  0.2154004640409726 2.3918124
[...]
<PointData  Scalars="f_49-3"> 
<DataArray  type="Float64"  Name="f_49-3"  format="ascii">8.2299162152470805e-57  -1.0230595082111582e-12  9.2635267959440495e-68  4.6462277028931573e-81  -2.1427353288361081e-36  1.0667507499018716e-70  5.0852678659053804e-62  -2.8837973451985940e-23  -9.5644469462908891e-38  2.0580025592018243e-06  -8.6670316997283695e-23  3.1478697388421860e-60  2.6497754075817887e-40  1.0269306497210191e-71  -7.4990684114848445e-53  -9.7831459588156711e-76  4.1266521535738327e-68  2.3638992590359581e-49  -1.8202035995208833e-40  -1.5535102812315718e-25  3.4928361432246538e-56  6.7237472391562428e-23  2.6338703789664316e-47  -3.9606644009566283e-13  -1.4311819002670031e-64  5.1545853981145086e-32  -2.4507747464285556e-39  -8.2563611514667481e-53  -7.5714708924889455e-61  9.3095191340275733e-61  8.1908394185635278e-49  -2.6092402979293428e-50  6.1727528752669089e-13  3.8841161144761576e-57  -6.7010175018350197e-36  1.0837901674930113e-32  1.4254316173114957e-50  5.1060063198104977e-29  -2.0952269074459077e-46  7.7171367590488174e-66  -3.9565324218155442e-30  5.6715985583170231e-63  7.8429379347960856e-17  -7.0038855546524914e-08  -5.9784066556191164e-77  1.9566105663517128e-73  -5.8568879842817508e-23  1.0991496637043736e-19  -2.3854287093136095e-56  4.2965948288747847e-46  -3.8348377561666612e-31  1.2611811180421725e-59  5.9366797015098916e-61  -3.4482475648244572e-70  1.6596665293450775e-15  5.7353859331514933e-32  -2.3309231089376249e-61  2.6344731182353460e-71  8.4337509127654474e-49  -1.0317420013821409e-64  -5.8910055335025925e-74  -2.1013334817558692e-22  3.4132552273165706e-43  4.3669501615562593e-55  4.3231423797224749e-40  -7.0522677844557266e-41  1.6826217239081495e-30  -2.5990864229721163e-57  -1.9698799622439267e-52  3.1315990694640561e-53  -2.0999107322914374e-41  1.5109261275796022e-41  -2.1379947079169923e-36  -8.2356807432756380e-06  1.4577360003787104e-16  2.4720289002303363e-19  -3.8591756763563648e-69  1.5995621020613310e-71  1.1297109879179072e-63  -1.2292556713187648e-41  1.8463076796167348e-10  -1.3607881204207596e-31  4.2927180162701886e-55  2.0408642555633262e-45  5.1111655539313165e-53  -1.4823202185142958e-66  -3.6657144179136898e-65  -1.7501515542420895e-45  -2.1386351741063768e-46  7.7665645540706534e-54  -7.2864164257541082e-58  -3.0638740099979079e-64  -6.4930963006639907e-61  1.2785437014765379e-66  2.6416310266699034e-56  3.1004334575414047e-38  -7.9353029050629102e-28  -1.7584668568682852e-68  8.8280056937499190e-50  8.4561463002297816e-56  1.0088948942874650e-49  1.3064480781795371e-52  2.4575566861578733e-46  -6.7689346930247847e-43  -3.8953904482827796e-47  6.4258814154623980e-09  3.9241834422198028e-10  6.5040385739488342e-18  4.9455912779907908e-62  1.6617694093887969e-65  2.9968730379856913e-35  -2.8145051262566111e-19  4.3963972389057761e-17  3.9937138051537126e-28  -5.8935317196899858e-25  -6.2103797365000590e-31  -2.4593600892027120e-35  2.2076652898893951e-58  4.6149164178533679e-60  -1.9224641142147959e-50  5.4098105800298477e-25  -1.5262276861123040e-56  1.8650182385491682e-70  2.5728586734888762e-34  1.3101760692264861e-35  -1.6628829312877634e-78  -6.6588029591682766e-14  9.9120110245569432e-63  6.6321118113161316e-59  1.3757444373867288e-47  -1.4358621755888596e-22  -1.4244503610814609e-51  1.2789283886179853e-34  -2.8191446170375259e-45  4.1216394640521134e-53  5.9381326775753436e-45  5.6684645922563534e-43  8.5410694700358861e-10  7.8748783880734461e-42  1.3355644546697927e-23  -4.0198609867066176e-27  2.8620199384585072e-36  -1.1572667241669889e-34  7.4373475282618585e-35  6.3949783014164953e-72  -4.2066602809153164e-69  4.2555312617717544e-77  2.7452603271335508e-61  -5.6851368984645222e-42  -7.1193264376755472e-63  6.6387650524040963e-41  -3.0835929084268620e-11  -1.9037295269323521e-26  9.5997968399085451e-69  1.5179687243853093e-31  7.6637392207151502e-36  -9.2490617262285967e-58  4.2460010437699597e-59  2.3284222070063807e-48  8.6683018513678136e-54  -6.5656409062744870e-73  2.5534236209271794e-52  1.8385917513042121e-65  2.5938575444581171e-64  2.4049316800639020e-69  6.6803143694458806e-58  1.7355414261424871e-53  1.9216287268218575e-24  1.0007906082350628e-17  3.0334893219672628e-27  5.8234217415292316e-18  -1.3394832713756951e-21  -7.5395097160929486e-57  -2.0986561513663154e-14  -4.5177348015682923e-10  -2.2391348093754568e-65  -3.2977313705283397e-22  4.1399364170937744e-28  8.8116761435511336e-21  3.5548567846466648e-27  1.7003226007496849e-47  -1.1056938326816185e-42  7.0724182826272212e-58  1.1207317235806537e-66  -5.4900313893453165e-62  3.1890959915106629e-60  1.0772660477215204e-71  1.0504018919467971e-60  4.1098133649302094e-72  9.9334513654616747e-71  1.4359224397676592e-58  2.1717522787815803e-72  -1.9133934211367773e-41  -2.7178222431074040e-19  -1.4239650460832136e-05  -5.4527999676424270e-27  2.5339067374119042e-36  1.3346351433827619e-44  8.9448013188652749e-75  -5.8106970498865493e-76  4.1577007099762677e-60  -2.6760371923722239e-32  3.4283667445195332e-75  1.3050605803093852e-47  -2.9393094474030266e-36  -2.6154479858376918e-40  -3.1769111240012636e-45  1.1254713143176510e-52  2.0617438023615742e-15  3.7819877912970312e-05  4.5139948974899694e-59  3.4732395661743787e-53  3.9034603338676731e-51  1.3257214861169064e-62  7.6794481166688810e-57  -2.3687292947105810e-15  1.4675070131309399e-58  2.3987494869807253e-39  4.5161226723612703e-42  1.3361894667813410e-65  1.2171381840087801e-48  -1.2487552964697463e-56  4.0172785598572203e-53  5.1763898936463423e-61  -1.1042103458798195e-51  -1.2149244374513420e-60  1.0917231341185828e-55  -2.2260417741262112e-29  -4.6603010809732491e-25  5.3872697356422067e-52  -2.2225320228432685e-34  -2.7412648619358598e-69  1.3100828625129423e-72  1.0304774332470245e-44  1.6063116671812175e-54  -5.3883602477040430e-58  -2.0252014813855531e-32  8.7420318174099613e-39  2.6083511248824911e-45  -4.1422187282086709e-66  2.9949370291826744e-52  1.8228688787296973e-49  1.0156896742868009e-39  -4.9439002421074455e-45  -1.8601757680482467e-38  4.0894364367471651e-38  4.5737895914838910e-19  6.3009775173318093e-53  1.4383965351704375e-30  3.3223754410731068e-58  1.7328113630648488e-66  -6.1003100582348866e-68  4.2133165841407054e-38  -7.4524054690826785e-17  2.0289504752771875e-30  -1.0498474588710913e-44  3.9031048829114699e-09  -1.7225979242451363e-05  7.0105393860392044e-36  5.1753672779463459e-57  -3.3022775325815501e-49  9.7430710282541811e-47  1.6373529330450826e-13  3.0811042278036544e-60  -4.3191240411373678e-39  -3.1884531826620220e-42  1.0506417036525245e-44  9.2115239573979885e-22  -1.0187418536721484e-28  3.9441986449730088e-53  -1.1115584589653481e-55  -1.2584863191497193e-55  -6.3528283904994296e-52  -3.5850615577191423e-20  5.3427912240644023e-15  2.4206506272023032e-49  -2.9245065477141065e-49  2.6862214852263734e-38  1.3142981286733775e-22  -5.4377443846223290e-39  -7.9851875856754690e-34  6.0353712807799994e-25  7.0203941986436203e-59  2.1009223291095528e-49  -2.9256091041109224e-50  4.9739804208495260e-68  1.4115098380216712e-73  -8.3900164971833755e-48  2.4122390198301978e-68  -6.8817726132438774e-69  6.8782656468117270e-52  6.0294015531795308e-48  1.9972313980886618e-49  5.1572609005178563e-62  -8.0922108079670393e-62  -1.5049420166633977e-64  9.9996423588466023e-10  2.6801661515769974e-08  -4.7136885396876534e-14  1.9880594800809144e-65  2.3999814815975949e-55  1.1352347157584195e-53  -1.1939860969447361e-12  -8.0988343444038725e-51  -5.0443983782584577e-29  4.3331903048511144e-33  -1.0380400513424416e-36  4.5925046085241929e-46  -3.3067115350181942e-49  3.0527369886920531e-25  5.0958899937555588e-43  -1.6389823722729037e-55  -4.4175261816063367e-67  -1.1800727133804219e-67  -1.4031835545684113e-74  2.6956468157533228e-16  2.5576985472940263e-44  -1.0996152415542934e-42  3.8268554905047056e-43  -3.9791557681515698e-64  -2.5042486651693399e-45  -2.3140418651882515e-52  2.4534392708897999e-14  7.5099523690684771e-38  1.4554074627656111e-40  4.1512159855170384e-61  3.7374675850707477e-27  2.9638073257095004e-63  -8.4629632682319742e-53  -4.2656527410650604e-21  -1.9928012084046455e-67  1.4154966456469254e-08  2.9937581408215397e-25  -1.0434422794172381e-62  -1.3170744263224760e-62  1.3726496211426475e-56  3.4846892115671720e-59  6.3571771913718685e-31  -1.0517347053323105e-25  -3.2174146045208173e-71  5.7626120739712328e-66  2.6618331468386599e-26  -2.8788684181374822e-47  5.7697520038151812e-46  9.1922379106075347e-63  1.1362447352657881e-50  4.8873968547498051e-72  2.7944649680188652e-55  5.0172259730464539e-41  1.1625428698389925e-58  8.3102648285940748e-31  6.5870639510475546e-10  -9.2392451251132574e-12  1.8061757011020944e-06  1.4921358928211606e-47  1.0074086094434472e-34  -2.5410792153414807e-21  3.4794659561985138e-69  -8.2930351231473144e-69  2.9064839281132279e-60  5.8842335484330429e-55  2.0355769529467671e-78  1.9815584461496665e-58  -1.5406360262734419e-62  -6.5021917823381587e-38  1.5792767157511466e-70  -2.8636505373211939e-45  2.0922361048886465e-58  1.5695134884510052e-49  2.3788923474358116e-45  -3.3311108205718923e-40  -2.8473234801491248e-29  3.2187297785263031e-14  2.2604353272679126e-68  4.7130535721993542e-47  -1.8826974685582802e-31  1.0197961563474543e-34  -6.8346119637695911e-63  8.8079578846676799e-19  -5.3340917033184254e-25  -3.8617606435138453e-22  -7.9445826353772046e-28  6.5866547649291456e-55  2.0774114010955374e-29  9.6309008810991176e-42  5.3867386503372995e-38  6.8985049508235711e-46  1.2535900736439709e-50  1.5907449113102333e-64  4.9853180540447181e-34  -9.4275188015152131e-36  1.2169530282726001e-18  2.8044138937346991e-54  3.0585122583319631e-14  1.4343028181958194e-26  -1.6881481367096994e-67  -4.1575115299223089e-44  -1.5924109341803126e-48  -3.7054620072874491e-68  2.6138565864528674e-33  1.6715303834823419e-03  -7.4624674198567562e-18  1.1017652637483039e-55  1.4960478480304324e-59  1.4561991259148843e-42  -2.1540011224466872e-60  2.0391233672203858e-61  5.2882863307673150e-34  2.4521880403329690e-16  5.6619872004735963e-66  4.8311399157690801e-33  3.2359190584713830e-35  -2.1336783296955336e-33  5.5158347076338844e-63  1.7733369002105416e-38  1.6509666367855408e-32  -6.4869483151775158e-53  5.8683711113144896e-12  2.5137061866758355e-20  3.0295378812601296e-61  1.1341105811898955e-35  6.3915254733472051e-50  -8.4443723712944343e-59  6.9260836041229698e-58  1.3434341258896309e-27  8.3342979757878703e-23  -1.7839464492210697e-42  -2.5587491915071820e-54  1.2687618479327526e-57  1.0239458631317214e-61  -1.8778966473179582e-24  -3.4955023390703509e-39  -5.2265894982324447e-59  -3.0168726013414189e-55  7.7231856279920641e-59  2.0883105773329545e-37  -1.1308759046074580e-46  -9.5508345048797696e-42  5.0162248384816049e-53  1.8225265834595934e-24  6.7341570190631909e-64  3.6514960873837397e-37  -8.6692601349319331e-31  2.6488736174155151e-53  1.0452515019402642e-74  7.2217776690976043e-21  1.2917656937304689e-51  -1.1141351247424727e-40  -4.7579965603160664e-29  1.7797999828573446e-62  1.3007848908460012e-41  1.6098428396508845e-19  1.5274116029337316e-56  -1.0722097649842563e-72  3.8627872995002812e-64  6.7471134435317978e-62  -1.8739611057558097e-28  3.9924725619374099e-11  2.4925842167242992e-36  8.8745350975721501e-11  2.3677949719925334e-47  1.7923537189969476e-44  7.5136537760554037e-25  2.8149958970498638e-59  -3.2875145004264318e-58  -9.7430037246717040e-28  3.4417328330123291e-55  7.8189389745104877e-16  1.2020924866089284e-43  4.1352845689452834e-07  1.1531619066712689e-55  7.1690705218159820e-22  8.3738687517640873e-25  7.0104411087773141e-34  1.6127098185855774e-38  -4.8376451218068411e-40  5.3624754387666498e-45  2.0119633714911112e-45  1.6904746817132891e-42  4.7692074390990639e-20  -8.2119256612755289e-60  5.3345458760417853e-66  1.9725695999869731e-70  -2.5495690920163789e-54  8.2366393427038721e-23  7.5508127671894867e-65  -1.1737706597702721e-20  3.4996872523381961e-32  1.1589362674068175e-25  -1.2003236127440879e-50  -4.9678251405620523e-32  -1.0282371779854416e-42  5.5591970033327473e-63  3.4393436680909553e-43  1.6677428931547631e-69  6.4886135221531160e-69  6.3652881866444822e-56  1.3190296096724465e-61  2.9150879719039716e-42  -9.0261328817050366e-67  1.0402883786448013e-55  2.7600528264587616e-47  -1.4993548941731657e-35  2.8802752808510461e-19  7.6372587063515347e-71  2.6044261038710951e-69  8.2639432555726698e-60  2.4184043673774197e-29  1.0797470474490437e-41  -5.7380195665971307e-39  3.9915163570218016e-51  2.0460361074442348e-68  -2.3702661797473214e-28  -6.0487566961418710e-53  -1.5706817806312164e-26  3.0061244772285702e-18  1.5843604452260253e-57  2.0896605821343849e-38  -1.4431716432235804e-45  5.1373204579560799e-58  1.5079174954560629e-57  -2.8021077648714986e-34  5.5393592098289441e-24  -1.6315005024622189e-38  -5.9670979485722249e-66  -2.2057300175143518e-52  1.7412366094742526e-43  2.0892670227468058e-51  2.0093354114035842e-52  -2.8941967437296359e-57  3.1761581115724434e-45  -1.8730639934443174e-64  -1.1627324940435650e-58  -1.6405096941709898e-37  -7.3058603865537962e-71  1.2704634578811818e-58  2.9800870243019871e-58  3.6374521613953939e-55  -2.6543308508623684e-73  8.5934316750993030e-72  2.7089556059476174e-72  2.5422665109824657e-68  8.0586455261843044e-53  -7.4717528024015421e-60  -6.4394209020820230e-20  1.2254251119967833e-19  3.7581458240513151e-47  4.2003821774171081e-59  1.6873730797233143e-63  -2.8309576271549984e-49  -6.0671863018180620e-75  -4.4997073664184225e-71  -1.6804709791456401e-38  -1.9188712138685029e-41  -1.5133783268545662e-66  4.5834417214083672e-50  4.9826830376804224e-39  -1.8380365464889647e-26  -2.4305505478770954e-59  -5.0253632344346426e-56  -1.5068818832159725e-63  8.8167397662318018e-11  2.5731028910997883e-09  -3.8044203028070970e-12  3.1997820624200132e-44  1.2453930202020279e-67  -5.2586276187384665e-53  4.1223021527883559e-13  9.7622683703456020e-69  1.8067914136901003e-53  -8.1811261488906488e-45  3.7369383942488337e-47  3.8165771025426214e-54  -2.0359705184185778e-76  -4.1916359171475362e-48  2.1939370594597750e-62  -7.2384455825509528e-74  2.4951546120276025e-11  -4.5461072500148354e-32  1.0705732201732831e-43  1.1976060210673126e-64  5.2343787299037039e-68  -2.3237105766088395e-40  5.9734837648922762e-55  5.3386045400982766e-20  4.9883539800413289e-44  7.0542070973763774e-76  4.7737280585764253e-41  1.5991724056759313e-16  9.2634052543948887e-28  5.7172505835664625e-52  1.1798532354694758e-24  -1.4037425733558304e-37  3.0552820285198821e-30  9.2932680476910589e-66  -2.0718703461763426e-52  1.3093794280630301e-12  -8.0953189933248596e-28  7.8297525291857240e-20  -3.7329817634988888e-22  3.1768728473446204e-22  -2.8754550991460270e-15  1.5961744993015560e-15  -2.5211481949261447e-69  -6.1984616192394124e-71  3.4233584027228977e-40  1.3709766915770142e-34  -1.0270560941400045e-39  1.5921662024222866e-29  -1.1298517076761139e-08  -1.2471249581401788e-56  5.0745473809561978e-65  -1.5991648490426273e-32  -4.3089263580046176e-67  2.7474249768604391e-64  -4.2315718336396379e-71  2.9610023657993777e-49  1.1685163382769968e-67  -9.1799591331618062e-33  -4.7121400009656488e-63  1.8219300629588723e-40  9.2261911808236943e-56  6.8199745814319182e-58  -7.1639964997514594e-14  -2.2808396866125647e-11  -4.0346029111906153e-65  5.7995772134548709e-39  -2.2549544658672638e-73  1.4586744126771315e-11  1.1189704980101095e-46  -1.7134220340297636e-70  -5.4839429193979151e-20  -4.8913137466503278e-19  1.1353258323076112e-47  8.0299284169267137e-61  9.3012658118045855e-36  -7.3060011001751563e-31  8.4591575471233910e-68  1.4973815362931481e-15  3.0018221747567546e-62  2.7781933323284604e-59  -1.5069153517343280e-29  1.8166821437972858e-60  -9.0992496069448044e-09  2.4753453185744788e-37  2.7869947554216796e-51  5.5432785915555158e-49  -5.7787819295163250e-43  2.8174675519356908e-63  -7.4182852336534659e-50  -1.2477423096150155e-48  1.0423657429494700e-31  6.4222234156470828e-47  -2.9501088331572984e-57  5.7959901879382343e-68  1.0296561858334415e-68  -2.5992163426261155e-50  -2.6827539388074171e-23  4.9679850683158149e-60  -1.5962701486754310e-72  -1.9857427581016655e-35  3.2815159292765655e-75  9.6052583795959379e-62  1.4633693199750118e-71  3.6326196842590863e-55  2.3768608857284595e-57  -3.1680878902085171e-62  7.1990929730488324e-34  -2.1847006066386138e-61  -1.9997352444727645e-74  -2.9276634986698955e-51  1.6882618667054081e-46  1.0833767907070145e-71  4.3261397925506543e-71  1.6145647052133146e-73  -2.6157696329664294e-17  -3.2751960323138704e-21  -4.0894793356555472e-25  -5.2234383802653810e-61  5.8724480701447596e-08  3.9246924044542414e-28  -9.4860019282317581e-55  1.5006297786267721e-42  9.2608356024092764e-59  -2.1573532499636186e-15  4.0611095074571417e-51  2.0065695616975870e-70  -4.7049955425671939e-21  -4.6643076417417627e-43  -7.6765552505821180e-09  -4.2891860096489997e-07  1.6768092385044703e-66  -2.9564384830730453e-78  -1.6201483510602268e-79  6.1195828464740613e-79  -1.1402852320897446e-29  7.0500885854268479e-63  2.9505783341755841e-06  -2.4782297351975514e-75  -6.9903530836227456e-76  -5.5411497916052958e-72  9.7752705499362171e-54  1.2967123142381554e-53  2.1088827865760157e-37  -3.8682836014965633e-59  1.8355648941465399e-40  -2.3667030280288792e-60  -1.5509641644484076e-16  1.1294209631283935e-14  5.9180668843599562e-15  5.7196723180096317e-68  -1.5418056139449107e-18  2.3121157681188192e-23  1.7432066046179066e-05  -8.6527204287524601e-46  2.3050226327304866e-27  4.3531326022046841e-29  4.4128446852887853e-50  -1.9234933684456067e-30  -1.4146014970953551e-31  -4.3364966766175178e-34  -9.1124688563175420e-26  3.7804361882112736e-07  2.4449932917006763e-04  6.9931080163104169e-64  -5.5924137875672423e-52  -1.0848207299621452e-45  9.0778953893202049e-64  3.5646062485385943e-17  8.2556701071275629e-71  -8.5909904934066245e-32  4.0213523969740816e-48  4.7507335394479482e-32  2.5044594991944694e-15  1.2751742107479627e-43  2.7188385181358716e-47  -4.2401613114463203e-41  1.3246521730819565e-23  2.4714070892657712e-28  2.0604306043275360e-55  -9.7166389290317444e-65  -8.1228424692279440e-17  2.1681561317031642e-60  2.2658958842279404e-63  3.6021403127299885e-32  3.8131275105604868e-49  1.9710113132673961e-24  -2.2550320632151603e-50  1.5435160965495226e-18  -1.6937327935986943e-66  1.3399868815221226e-37  -2.3234387877368865e-39  2.3460574112179328e-55  -7.1896051453520290e-56  -5.9159140473695296e-58  1.4149609301150295e-60  7.1741057915165550e-60  -1.0748070412747737e-50  -1.0870478109572826e-27  5.8397522124185760e-50  4.1324048004219203e-40  2.2020095499655879e-37  -6.0170426875201119e-42  -2.0244634362100427e-42  3.9970701729935357e-60  -1.1964910190073435e-42  9.5419022402190316e-51  -1.5737862850258032e-52  -1.9678530792912973e-47  3.5823366068494867e-48  -1.9558639747611438e-34  -2.9551025596543625e-35  -2.2357005554375454e-38  -6.3628973356400809e-33  5.1016181845437548e-63  -1.5927814909552396e-54  5.2649602506982713e-55  -8.1883511709350504e-53  4.2756814744982329e-51  2.6827638295836727e-53  6.1484586375335751e-61  -3.2547432694781201e-47  -2.6733591616169040e-43  3.5028997898532747e-66  3.4648232656724746e-68  -1.6688938255532203e-64  4.5914055866559043e-40  6.5835882776948521e-30  7.2981914843748228e-23  1.3574788387683499e-47  -7.8868706807178346e-57  4.4483250294521232e-23  1.3792053484088481e-40  5.1890122055851559e-62  1.3260509509463327e-12  1.5032153329920014e-55  7.7221707791372291e-66  1.0756047519964723e-64  -1.5177425893944755e-73  8.2234163806774457e-60  5.8768058067341954e-59  4.0935660616813137e-30  2.8881440863711042e-44  -1.6028608352089323e-40  -4.2186897650896723e-25  1.3811340616687934e-54  2.5336103641709780e-59  2.8423775418728869e-42  1.9455168994438505e-67  -9.6033523118428547e-33  7.0305674560000261e-40  2.9502270990206054e-30  -2.7057143839109414e-28  -7.5469576796244720e-55  1.6083298556985582e-58  2.4327128520643607e-55  3.8529625