<?xml version="1.0"?>
<VTKFile type="UnstructuredGrid"  version="0.1"  >
<UnstructuredGrid>
<Piece  NumberOfPoints="6486" NumberOfCells="12696">
<Points>
<DataArray  type="Float64"  NumberOfComponents="3"  format="ascii">0 5 0  0 0 0  5 0 0  5 5 0  2.5 0 0  5 2.5 0  2.5 5 0  0 2.5 0  2.5 2.5 0  0 1.25 0  1.25 0 0  1.25 5 0  0 3.75 0  5 1.25 0  3.75 0 0  5 3.75 0  3.75 5 0  3.541666666666667 1.458333333333333 0  1.458333333333333 3.541666666666667 0  1.875 1.25 0  3.75 3.125 0  1.284722222222222 2.326388888888889 0  2.683189655172414 3.767959770114943 0  0.9375 0.9375 0  4.0625 4.0625 0  0.7252209595959597 3.026357323232324 0  2.763480392156863 0.9129901960784315 0  1.875 4.345238095238095 0  4.345238095238095 1.875 0  4.192708333333333 0.8072916666666664 0  0.8072916666666665 4.192708333333334 0  3.368055555555555 2.326388888888889 0  0.6837606837606839 1.738782051282051 0  3.285485245626782 4.324328415208927 0  2.551239698778062 1.693130150610969 0  1.827256944444444 2.868923611111111 0  3.464875022477093 0.6813924607921316 0  1.942880513719175 2.059558626187995 0  3.04563492063492 2.971230158730159 0  4.375 3.4375 0  2.13639445139758 0.5994472256987903 0  4.272228422619047 2.606956845238095 0  0.625 0 0  0 0.625 0  5 4.375 0  4.375 5 0  0.6400043240752655 2.384646170113389 0  1.347691225855598 1.660875475110776 0  3.515783617857982 3.723905460714006 0  3.125 0 0  1.875 0 0  0.625 5 0  4.375 0 0  5 1.875 0  0 1.875 0  0 3.125 0  1.875 5 0  5 0.625 0  0 4.375 0  3.125 5 0  5 3.125 0  1.489644181965304 0.6007147273217681 0  2.054597701149425 3.742302955665024 0  2.662520990197781 4.39452575763237 0  2.415835363784578 3.165530021913244 0  0.8679986894865213 3.602373689486522 0  1.267459753787878 2.886186079545454 0  4.099702380952381 1.365327380952381 0  1.316964285714286 4.438244047619047 0  3.7915135293491 1.959691594758709 0  2.875141124191255 2.118761176511833 0  3.00418010501169 1.397414179299248 0  0.4081721322167092 3.410647930198662 0  0.4166666666666666 0.9375 0  1.014190407998288 0.4422301359994293 0  1.383260571305984 1.162718286082048 0  4.53125 3.90625 0  4.453125 4.453125 0  3.772848162504192 4.48678272083473 0  2.8125 0.404329517041716 0  0.4538690476190476 0.4538690476190476 0  2.305461739347387 1.04517007574828 0  3.771263799175824 2.624190260297553 0  3.229617768018734 1.809956994202883 0  3.780190884441317 1.025307111692601 0  4.646337365591398 0.9375 0  4.537623451379149 0.4609485750426037 0  1.200477888421151 3.934852888421152 0  0.3536626344086022 4.0625 0  0.4623765486208503 4.539051424957397 0  4.0625 0.353662634408602 0  4.560525106689535 1.390989100915847 0  3.958439078571988 3.619844539285994 0  4.672619047619047 2.1875 0  2.1875 4.672619047619047 0  1.862808494877602 3.325947624431087 0  0.3268135998175443 2.8125 0  4.674181280189791 2.8125 0  2.283233994935276 4.138623547175983 0  0.9375 4.677879119362977 0  3.08488061581743 3.469889594488945 0  3.113427375573758 3.913955730709506 0  1.652847799068813 3.950848935641292 0  2.932652662909449 2.550542739521724 0  3.311350648514189 1.088831994878698 0  0.6770833333333333 1.295851139601139 0  0 1.5625 0  1.047214787840024 1.96818092308125 0  4.183331482095785 3.03958703580843 0  3.4375 5 0  1.071307777252521 3.246275861010018 0  0 2.1875 0  0.386576856303419 2.03125 0  1.713862716483534 2.439783116849799 0  1.775396256975935 1.665976816304977 0  2.231236976948428 1.443917394671254 0  2.373900732409897 2.086930260150635 0  4.114918237574474 2.221646174618671 0  3.661302567757379 4.099620139144836 0  3.378215938602977 2.734494874063393 0  0.9842097536079312 2.597286741306247 0  1.642795138888889 4.672619047619047 0  4.0625 5 0  2.099458800960004 2.567446522665629 0  2.616202751603346 1.297895893940078 0  5 4.6875 0  0.9937554350075428 1.512592975947215 0  2.8125 5 0  3.002695327068194 4.614055254615477 0  3.205627424097207 0.3852436382721472 0  1.678616581261621 0.927556612265266 0  3.365326698305438 3.196943731162083 0  1.554834936170314 3.120009882655813 0  3.108408340729323 0.7797187795784133 0  3.684368918102174 0.3728877601163941 0  2.716214835303553 3.39276351922003 0  2.37718583984784 3.551973401560441 0  0.3750662445374837 1.52191994866787 0  2.679073487930202 2.844160731602957 0  1.557635869750078 1.991068682985722 0  1.812595698561088 0.3839273018252746 0  2.512014721281916 0.6320641118792227 0  2.1875 0 0  2.349973454443689 0.3189980586887866 0  4.6875 3.59375 0  4.636052949022233 3.178355898044465 0  4.6875 5 0  3.345485909784306 4.665765449101383 0  0.536727472389443 3.749603193819277 0  4.349541499640203 1.116201826262156 0  2.886559045931982 1.774013674579691 0  0.6770833333333334 0.7142857142857143 0  1.5625 0 0  4.120842096538671 4.628726497527622 0  2.176157474177018 1.793470423744689 0  2.175650736889416 2.909863021769539 0  4.036616464259081 1.709699085170981 0  3.887974623473683 0.6492597046022868 0  3.4375 0 0  3.70675699592552 2.289666624772415 0  4.697265625 4.208984375 0  2.815177577303495 4.085937578239174 0  4.672619047619047 1.730733296184288 0  4.6875 0 0  5 0.3125 0  0.3125 5 0  0 4.6875 0  0.3276089296588581 2.484526834811734 0  0.712433309515852 2.065138854645612 0  0.6376435912223634 2.711473454001295 0  1.184991292170422 0.7222504400947201 0  1.31884329779317 0.3206944232264773 0  3.683609198994263 3.44428698533042 0  0.3125 0 0  0 0.3125 0  4.231797269642997 3.789141808928991 0  1.564375596050781 1.425998687184973 0  2.007640894175573 0.9032106925568466 0  0.955125897558294 2.276666098587227 0  1.43898735721003 2.611310720271951 0  1.954491523717513 4.040700257877075 0  1.752947649777421 3.652439445419346 0  2.509575750247638 4.678021307664052 0  4.687194709705067 2.499965519538002 0  1.5625 5 0  0.9375 5 0  5 2.8125 0  2.1875 5 0  5 1.5625 0  5 2.1875 0  4.0625 0 0  5 0.9375 0  2.8125 0 0  0.9375 0 0  0 0.9375 0  0 2.8125 0  0 3.4375 0  0 4.0625 0  5 3.4375 0  5 4.0625 0  4.010848109290813 3.306446973933037 0  0.3077461147713075 3.119700563473354 0  4.6796875 4.6796875 0  2.333079012424948 3.845757959077508 0  0.7829771267899832 3.317744656243421 0  1.159100632608513 3.532487125138763 0  0.799066251840424 3.893573750162776 0  1.57326499580282 4.255438189102632 0  0.7309366047093668 0.2991402264438908 0  0.3054777494262156 1.223275888123843 0  4.027475154280377 2.78211326942427 0  2.35270874745988 4.426658168476266 0  3.474236283732569 2.021154281686229 0  4.401414236174444 2.329446628171927 0  3.39403781747337 3.987097102903034 0  1.077524329801934 1.214100792470484 0  4.065611571711903 1.066085524514197 0  2.165399002716117 3.335637450367864 0  3.007639563081306 1.093684039371638 0  4.030818285732145 4.351883315180857 0  3.504115222530889 1.739284194222036 0  1.224503368215566 4.712091441401919 0  3.805634204685714 1.321528442399996 0  4.319233123479386 1.573547993867769 0  1.024007670021325 4.394604704797005 0  3.776400432023095 3.839003324979723 0  2.991819819453308 4.320567175146181 0  0.9782797534072181 2.886406017887129 0  1.763835134082104 0.6602345487826022 0  3.765182288741625 1.631193038541544 0  2.267959593989681 2.345053543725764 0  4.412434895833333 4.168294270833333 0  4.4072265625 4.7255859375 0  2.791493971314009 3.11210833271929 0  3.408766223032414 3.469500900677365 0  1.915147569444444 4.725484476461039 0  2.070301968506271 0.2605666686358055 0  2.767932250651506 1.530295992695836 0  3.280065043173439 1.364863281105779 0  4.45101570110842 2.974157152713635 0  3.521928862999512 2.96990445010402 0  2.552921961347576 4.008414007169315 0  0.2682955376854191 3.657555015841003 0  3.084522868361304 2.310593316718068 0  2.669255823227708 1.939379494498064 0  2.615884629473921 2.238841231570381 0  1.405652091971449 0.8877813821442277 0  3.25151486618811 3.68536115104276 0  1.963741569810629 2.331207252264507 0  4.017297980292599 2.486269171379106 0  3.869168920841219 4.748188103831625 0  3.596868753579134 4.77342723825056 0  2.41262958240343 2.764128584995838 0  1.266750578673391 1.404747710001619 0  1.559243962241121 2.85146506328516 0  3.128799423834764 2.052081657715259 0  0.6770833333333333 0.9778025793650794 0  0.2083333333333333 0.78125 0  1.978224492765132 3.087074731032578 0  4.051448850909273 1.969392119104174 0  1.320577095006813 4.172234780971559 0  3.214261103850064 2.534397293281829 0  0.2635729089754111 1.779234736680035 0  3.510775680035133 4.460728640112889 0  2.603081405968802 0.2432579385496493 0  2.866341315154884 0.6662105505481998 0  3.000919221100777 0.2270278495648781 0  1.298858304121393 2.05917319923859 0  2.020292299736597 1.589794568392338 0  0.7401688396476035 4.470780315741533 0  0.6721783535561408 4.733125588707921 0  3.753712482075402 2.874301339727514 0  3.557348205914658 2.491958694539413 0  1.094565978195436 0.2011034254079851 0  0.9338148378011396 0.6833568465908735 0  2.945530578578538 3.701798332963805 0  3.111707186654356 3.216904195825605 0  1.341791111822685 3.293123262233967 0  1.632939924064587 1.184895891095613 0  0.6335477978936732 3.517393619499591 0  0.5576014611130192 3.210998966942492 0  1.564344196470102 0.3630498725895039 0  2.75362450242839 4.626680495816594 0  3.571304405229554 1.192452351107437 0  3.522934592621944 0.9359134489437148 0  4.453125 3.671875 0  4.765625 3.828125 0  1.055906321410838 4.14310472322957 0  4.795146539102229 0.46875 0  4.767156345199235 0.7178596932040019 0  0.2048534608977711 4.53125 0  0.232843654800765 4.282140306795998 0  0.5393715189906129 4.270810883024032 0  4.329922600274667 0.2750645887059072 0  4.275515096738972 0.5448389557295173 0  4.477747423652795 0.7252838358993123 0  0.2002829820452772 0.46875 0  0.4352678571428572 0.6956845238095237 0  0.5007241582667088 0.2123388122114133 0  4.672890923830735 0.2500902110494848 0  0.4308009280819452 4.783624996516437 0  2.104871305393774 4.438653689007242 0  0.2274454167838428 0.2274454167838428 0  3.446466574593436 0.4359605369011901 0  2.12354112127588 1.217588426759619 0  2.309175236825235 0.7888355970690434 0  2.556178570281936 1.054299163237582 0  0.578683248637
[...]
<PointData  Scalars="f_800-3"> 
<DataArray  type="Float64"  Name="f_800-3"  format="ascii">7.0274066134943473e-03  9.6787599423500195e-03  6.7257729668103311e-03  6.7090345240729326e-03  8.2082339991488406e-03  6.7228449966547123e-03  6.9811137224235001e-03  8.4568953014945349e-03  8.1945676628666971e-03  9.1980176386642232e-03  8.9539517260498053e-03  6.9641717774897903e-03  7.7076423602968390e-03  6.7229250091506215e-03  7.4643205028656250e-03  6.7272562731665094e-03  6.9719321156867485e-03  7.5852885052609389e-03  7.8363983663800839e-03  8.5820448551867830e-03  7.4654409593710438e-03  8.5562509687441644e-03  7.6995400877350089e-03  9.1048053774603847e-03  7.2631781282659520e-03  8.1426388917916620e-03  8.0486416026340681e-03  7.3672046308130247e-03  7.1095845916164160e-03  7.1962343915579329e-03  7.4684734797021068e-03  7.6950688849865704e-03  8.9061039987259807e-03  7.3691372516702623e-03  8.1794764345429830e-03  8.2336058167126677e-03  7.6296338498198770e-03  8.5295717069513669e-03  7.8718933400673697e-03  7.0966100416367407e-03  8.4243288910901513e-03  7.1536169896562604e-03  9.3262308185632792e-03  9.5747885515224829e-03  6.7278781226797297e-03  6.9396095242640968e-03  8.5255520921403028e-03  8.8873397645265299e-03  7.5772973192465383e-03  7.8299065537394928e-03  8.5777774555782088e-03  7.0096466775651633e-03  7.0920221964475517e-03  6.7189938122052010e-03  8.8265984183500297e-03  8.0821005325908326e-03  6.9769715417309208e-03  6.7243111895600441e-03  7.3864353079680940e-03  6.9771280090646388e-03  6.7234779751658138e-03  8.8109078009061120e-03  7.7196055450334984e-03  7.3301274650418215e-03  8.0544744258616262e-03  7.7986974589597940e-03  8.2295631208372799e-03  7.2525224356620507e-03  7.3065588424073543e-03  7.4401081419644575e-03  7.9869799100349380e-03  7.9078724015677251e-03  7.9125608801640917e-03  9.3747217397716683e-03  9.0944628750752512e-03  8.8621671054972678e-03  7.0034130239879739e-03  7.0295882580887281e-03  7.2569332310204494e-03  8.0206457067388721e-03  9.3726980919388875e-03  8.3267715172926776e-03  7.4562631247530762e-03  7.7762290618519636e-03  7.4430037117423483e-03  6.9294484080384827e-03  6.9957313128005518e-03  7.6010661937633527e-03  7.5214564603631696e-03  7.2388536693650980e-03  7.2763463410781557e-03  6.9765757185245719e-03  7.3343544093034717e-03  6.9142699930317946e-03  7.1721799453538914e-03  7.9645542397448824e-03  8.2703692670668769e-03  6.9133450622114135e-03  7.4835591504885243e-03  7.1566709050378116e-03  7.8035811152389794e-03  7.6085666348004889e-03  7.5941252562770926e-03  7.9465101844907217e-03  7.7217726076120536e-03  9.1658628737640354e-03  9.0125207075990744e-03  8.7693536710397139e-03  7.2120647651005261e-03  6.9751176603454678e-03  8.0109806931953371e-03  8.6409946800036913e-03  8.7413873115423837e-03  8.4855833550437354e-03  8.6224245324763218e-03  8.3697621172601037e-03  8.2769752473657154e-03  7.2451142803293010e-03  7.4380569497075168e-03  7.6873735270624318e-03  8.3972381920056349e-03  7.1620060365679295e-03  6.9663833231965108e-03  8.3813722953413050e-03  8.1427342468235828e-03  6.7191440853691751e-03  9.0324537051977277e-03  6.9798339516494428e-03  7.2031709470441428e-03  7.7836154262889822e-03  8.6988076393201431e-03  7.6851089497054570e-03  8.0890054028370708e-03  7.8439120890301649e-03  7.4972431507015639e-03  7.9125961413475249e-03  7.8283368712147045e-03  9.0351153454120599e-03  8.0857558361599382e-03  8.7300967475763391e-03  8.6171282966287163e-03  8.1980201280844253e-03  8.3912258781778729e-03  8.2932537334758673e-03  6.9103914127511268e-03  6.9380789653648994e-03  6.8520578869430346e-03  7.1656755228422485e-03  7.7071933646786208e-03  7.1021386925322954e-03  7.9831423148082944e-03  9.2472820720705135e-03  8.7666614033653258e-03  7.1359550704810258e-03  8.3989785047250132e-03  8.2061767312333403e-03  7.2903444392177367e-03  7.3761907151676381e-03  7.6466616426474837e-03  7.4916739943514700e-03  6.8995567204271600e-03  7.5141191998925674e-03  6.9111141967518695e-03  6.9065789319011335e-03  6.7257039055597352e-03  7.0336109968556857e-03  7.1999676274893658e-03  8.4642350214242344e-03  8.7130620098691512e-03  8.3291873461832453e-03  8.9930776337006513e-03  8.9127263137025788e-03  7.4958480296106744e-03  9.5129520959209360e-03  9.6085791533181870e-03  7.1742836102723822e-03  8.7477293291825815e-03  8.5031153395958830e-03  8.5866750843931333e-03  8.3889171799631217e-03  7.5435913630479664e-03  7.7715882859845167e-03  7.1661032032922590e-03  6.9051552340758209e-03  6.9823407974879586e-03  6.9750804004877391e-03  6.7241628687300468e-03  6.9762517300025976e-03  6.7198458714778754e-03  6.7203195076516731e-03  7.2779367860340621e-03  6.7260690981144058e-03  8.0175671250841303e-03  9.1395436738893332e-03  9.3830708629062780e-03  8.2682887533265907e-03  7.8947614345752579e-03  7.5071140224528014e-03  6.7253351819734570e-03  6.7280440738229494e-03  7.3112806399895187e-03  8.0855005019590254e-03  6.8948418013714688e-03  7.6573608331990178e-03  7.9694199163456783e-03  7.8426423166397478e-03  7.6277794836004161e-03  7.4157314134558157e-03  9.2629525684827848e-03  9.2129930437367547e-03  7.3028534019063318e-03  7.3191359493627048e-03  7.6300842997303791e-03  7.0738822236886146e-03  7.5426902142218264e-03  9.0453549333661797e-03  7.2716899249069449e-03  7.9568849833718154e-03  7.9039966869242743e-03  7.2452865712224271e-03  7.6095452407892363e-03  7.1522301878435401e-03  7.4291179334922937e-03  7.1220390370524880e-03  7.3436213519167629e-03  7.4317751913042952e-03  7.3715048347603781e-03  8.2263237908970690e-03  8.6482426089376559e-03  7.4521354001436313e-03  8.3335303318920924e-03  7.0623021086503989e-03  7.0180778696909947e-03  7.9986794997882610e-03  7.6537455251994013e-03  7.1342577204499763e-03  8.4622379584015448e-03  8.0512796432537434e-03  7.7421789498271889e-03  7.0481865727571287e-03  7.5995824584621499e-03  7.5586359176083428e-03  7.7637149684486612e-03  7.8628779989958937e-03  8.1093610605147397e-03  8.1364650184441965e-03  8.8612428225630334e-03  7.6891422326100618e-03  8.4962737323077964e-03  7.3061678605318408e-03  7.1115134377622265e-03  7.1024265689867130e-03  8.2235871791943842e-03  8.9347914162587177e-03  8.2459567504068968e-03  7.8376279767807498e-03  9.3233652011142591e-03  9.4666657158780972e-03  8.1044303246936896e-03  7.2831700240290464e-03  7.4618782526905941e-03  7.7849593514191058e-03  8.8829703851938269e-03  7.2856241458997160e-03  8.1455679246594335e-03  7.9865300684113603e-03  7.9058134167172105e-03  8.7137741747237221e-03  8.4932620856595538e-03  7.2789543460623505e-03  7.1245842774113619e-03  7.4649335995892133e-03  7.5835729663153960e-03  9.0463316956237525e-03  9.1367411719476179e-03  7.7333390081215959e-03  7.8295288431490754e-03  7.9850128819891446e-03  8.7252661965842582e-03  7.8510189949004463e-03  8.0323933399742316e-03  8.7670914039458363e-03  7.1940655992209597e-03  7.5678381538887450e-03  7.5980122577654430e-03  7.0491917870592535e-03  6.8650182634612724e-03  7.4803579107939853e-03  6.8412549809632297e-03  6.8608649555221730e-03  7.2843400999458609e-03  7.3880246542915098e-03  7.3983819118088575e-03  7.1192684264424922e-03  7.1498042572878283e-03  7.0298415475373178e-03  9.7306790227106518e-03  9.4970090922421140e-03  9.4009084518102692e-03  6.9154503494413691e-03  7.1336456464696704e-03  7.3097253796135676e-03  9.5186167667866486e-03  7.6385138875367416e-03  8.4338776052186315e-03  8.3229338347888919e-03  8.1771647229896827e-03  7.5808144042436385e-03  7.7361168569542145e-03  8.5982542304092885e-03  7.6279616193037593e-03  7.3943474547874793e-03  6.8705328299748019e-03  6.8548704763550655e-03  6.8566519103476229e-03  8.9860788988832888e-03  7.6890482720265753e-03  7.6874385446435043e-03  7.8682349266738644e-03  7.1035896545034423e-03  7.8552316612777156e-03  7.4984225058222793e-03  8.8984796069069561e-03  7.9491495600235509e-03  7.8406352038213646e-03  7.1105648666520147e-03  8.6732735728466195e-03  7.0458325600819324e-03  7.4219339158543693e-03  8.5925563427951789e-03  6.8541934067397128e-03  9.1053219299343513e-03  8.4245272678389119e-03  7.2283008070827565e-03  7.3036199225777303e-03  7.3263272489855445e-03  7.0748255271370630e-03  8.2116964045387125e-03  8.3636567296334167e-03  6.8164367863272242e-03  7.0142966292405604e-03  8.6307922129750421e-03  7.7377003868633150e-03  7.7192684330504189e-03  7.3403086390864108e-03  7.5529998510277079e-03  6.8178736548697187e-03  7.4923646151471247e-03  8.0157776805686882e-03  7.1018379727434394e-03  8.3730072623692496e-03  9.0376519472811223e-03  9.2144507353475024e-03  9.2594934000624941e-03  7.7218028231229828e-03  7.9893868388639447e-03  8.5478904859657579e-03  6.8162520568723463e-03  6.8168678225856150e-03  7.0674573484675682e-03  7.1362687233271155e-03  6.8058994376008781e-03  7.3375470695336755e-03  7.1534412042545230e-03  8.0389644549505694e-03  7.0297135120905895e-03  7.8705315976098453e-03  7.4340374323989926e-03  7.4876650853568450e-03  7.6520610611648734e-03  8.0736929138092162e-03  8.1825762257463960e-03  9.2294589273577074e-03  7.1413370276181632e-03  7.8981048448034646e-03  8.4197619610966688e-03  8.2716495886772153e-03  7.0691129846170127e-03  8.8360296126999468e-03  8.6327519923889619e-03  8.7540442851815579e-03  8.5228663159003116e-03  7.3452141407863757e-03  8.3600999680292481e-03  7.8312730997390674e-03  8.0817172862497916e-03  7.6027868678586463e-03  7.4304680545727057e-03  6.9826308580566857e-03  8.1133615232715367e-03  8.1976283026165189e-03  8.9728882450346419e-03  7.2972149836494828e-03  8.8535318401515989e-03  8.6535855197885231e-03  7.1127844618689463e-03  7.9638691725536295e-03  7.7442204092653469e-03  6.9671406425130342e-03  8.2930118008758755e-03  9.3340011533407426e-03  8.7675289541682463e-03  7.3663460438888667e-03  7.1691276581091938e-03  8.0867620511796221e-03  7.1895625359639720e-03  7.1194455959471487e-03  8.0992204221427902e-03  8.9386350889898766e-03  6.8106144616772975e-03  8.2795019308351328e-03  8.2259860863809538e-03  8.3061856828057432e-03  7.0877789231124904e-03  7.9028850404121338e-03  8.1026743956116882e-03  7.5617602526035447e-03  9.1345834938460126e-03  8.6406065360972173e-03  6.9678886099486387e-03  8.3092635856401205e-03  7.6308098771139029e-03  7.4510285585891092e-03  7.2871837083454240e-03  8.3204847635858070e-03  8.4875965824813722e-03  7.7281440355319066e-03  7.5849848210513384e-03  7.5132276548418760e-03  7.3749063913424390e-03  8.8591696748802125e-03  8.1605299207465169e-03  7.0684638729046423e-03  7.2155653010206365e-03  7.2696079680802618e-03  8.1916516085279219e-03  7.5632120461319383e-03  8.0265612595161236e-03  7.4896668493749340e-03  8.8146555348568665e-03  6.9914609313229421e-03  7.8778692687559732e-03  8.4172843702076186e-03  7.5285898968713788e-03  6.9298558027586603e-03  8.8126842508757710e-03  7.7478639858538272e-03  8.0227306259193238e-03  8.5450803531902254e-03  6.9994827271806261e-03  7.9446560152459933e-03  8.6471132595514130e-03  7.2830739428120994e-03  6.9046051662075975e-03  7.0331598735502952e-03  6.9753618749434860e-03  8.4960538118900777e-03  9.0523696284582050e-03  8.2925003684947724e-03  8.9916190386641337e-03  7.8339043261483072e-03  7.8122645686570600e-03  8.4265508966348060e-03  7.1858071642618036e-03  7.2210240702465494e-03  8.3130429020794178e-03  7.2478876229192290e-03  8.7914111345917135e-03  7.8181860939984631e-03  9.1452448991849039e-03  7.3870081276249363e-03  8.7685093421639888e-03  8.6320386720366397e-03  8.3064516951416902e-03  8.0970316561463015e-03  8.0980661350110936e-03  7.8172817935424702e-03  7.7192192676603689e-03  8.0025085556327397e-03  9.1505853766874149e-03  6.9884211584500351e-03  7.1936974408042011e-03  7.0929568464754324e-03  7.2369952855212754e-03  8.5180571453934116e-03  6.9770590472842241e-03  8.7903879347600525e-03  8.3979528193144845e-03  8.4996858213168096e-03  7.3965281916211351e-03  8.1515896367755046e-03  7.9471420668128165e-03  7.1976733584874905e-03  7.8853410467930613e-03  6.7185534457138846e-03  6.9256331353918978e-03  7.4188677699758019e-03  7.3393972143703801e-03  7.6723740261927173e-03  7.1685775722966916e-03  7.3300424092690710e-03  7.7755830692755974e-03  8.2374465100766570e-03  9.2330485187940986e-03  6.7241050633167739e-03  6.8246389367507257e-03  7.0768621793680878e-03  8.5688603749167914e-03  7.7560610938067374e-03  7.8091726439929983e-03  7.5442721779178708e-03  7.0743023234946601e-03  8.5095614498047010e-03  7.4402971417849590e-03  8.5188422434311715e-03  8.6919268068364232e-03  7.3404030523404294e-03  7.8009080499751530e-03  7.5804721200856311e-03  7.0600070484838490e-03  7.0663703883891600e-03  8.3615400764388385e-03  8.7156854731812051e-03  8.1082126947525628e-03  6.9561072222413681e-03  7.3165520382750104e-03  7.6987759863007769e-03  7.5995282509561729e-03  7.5248849684362122e-03  7.4228577060438151e-03  7.5211601089032534e-03  7.1503047466131321e-03  7.1878730355213038e-03  8.2399983580476836e-03  6.7225967148329228e-03  7.2119509475871302e-03  7.2368122271200342e-03  7.3571932971012340e-03  6.8164623371629058e-03  6.9567103316954199e-03  6.8303214695084906e-03  6.7227158717916933e-03  7.3886743621728330e-03  7.1808218086131604e-03  8.6327790132871909e-03  8.6141927974176715e-03  7.7369996297276681e-03  7.2660828204770562e-03  7.0726107604814938e-03  7.6845857561928443e-03  6.8118334740000074e-03  6.9867120066804851e-03  8.0848128908686170e-03  8.0047217759924797e-03  6.9483974554586771e-03  7.3333786863508483e-03  7.8746386645317870e-03  8.5977345475596791e-03  7.3642356729843360e-03  7.2173545018888114e-03  7.0163487418472255e-03  9.3051031908092437e-03  9.4177865079434347e-03  9.1698403916077361e-03  7.7362663022946991e-03  6.8141322982861428e-03  7.5934586221424539e-03  8.9192427524025421e-03  6.8171231501737350e-03  7.2066342947920154e-03  7.8859934248563975e-03  7.6673825710308289e-03  7.4116930291671683e-03  6.8080998902635146e-03  7.9145400403589396e-03  7.2051307467916378e-03  6.8216506578489830e-03  8.9572861695887875e-03  8.1478565220611809e-03  7.9193408374014420e-03  7.0091777040492765e-03  6.8127315744161967e-03  7.8390086936067447e-03  7.6135003786641422e-03  9.0098441066387442e-03  7.8176138703473681e-03  6.7275046250132448e-03  8.1670130944424060e-03  8.7591287704188031e-03  8.3248295904448117e-03  7.7279600389873349e-03  8.4262233874090806e-03  8.1777499578113144e-03  8.3988527688685522e-03  7.0137909671950547e-03  7.4614366884723149e-03  9.3247310240788753e-03  8.3300620094326101e-03  8.8886693131064436e-03  8.9496645155840489e-03  8.8765144827711046e-03  9.0529518428607691e-03  9.0576678545948117e-03  6.8153415761822208e-03  6.7197846669516904e-03  8.1531745931743196e-03  8.1982605642036566e-03  8.0828636839371873e-03  8.2367940521984057e-03  9.5946661738591024e-03  7.5679011681629256e-03  6.9425081825573330e-03  8.4849194939698482e-03  7.0827081197839320e-03  7.0184189127222721e-03  6.9764353863215958e-03  7.6032124314186133e-03  7.1731762723254979e-03  8.4020184583341387e-03  7.2408209177757064e-03  7.9541617055586666e-03  7.2421965641312350e-03  7.1682237023574860e-03  9.6034035667860573e-03  9.6154412523487207e-03  7.2049194681458109e-03  8.1115203752943933e-03  6.9397916278806154e-03  9.4363043026597527e-03  7.4534571523412066e-03  6.8051443184901700e-03  8.8289357281510095e-03  8.8447529485940132e-03  7.6819963162362524e-03  7.2561111651203080e-03  8.0203633225074383e-03  8.4169118094485178e-03  6.9707079677277274e-03  9.3097663875841459e-03  7.0608253937689911e-03  7.2771807776454579e-03  8.5203563869934787e-03  7.1462349930439036e-03  9.2569762448664605e-03  7.9363402482115625e-03  7.3906292229837939e-03  7.5111075574477984e-03  7.7421288171665836e-03  7.3174196234526388e-03  7.6442228366154852e-03  7.7972775028341823e-03  8.4417222203057949e-03  7.7877939904922502e-03  7.3673602900190356e-03  6.9091636064160054e-03  6.8094398763910973e-03  7.4285535137231812e-03  8.4558946059133961e-03  7.0682534338157767e-03  6.8123972135360243e-03  8.2996824281130130e-03  6.9064287339062076e-03  6.9817388256444464e-03  6.9614581648601388e-03  7.1072684294675257e-03  7.0202001559531791e-03  6.9872796444656847e-03  7.9880006802983336e-03  6.9916580162033594e-03  6.7243944845489017e-03  7.5557714032220393e-03  7.7383419027520954e-03  6.7217329809528175e-03  6.7236304696582381e-03  6.7238315933260667e-03  8.7340208122630974e-03  8.5488899675216189e-03  8.3630791789355719e-03  6.9776553991493743e-03  9.1058149461804086e-03  8.6733681310484437e-03  7.3705500429037613e-03  7.6122793281738679e-03  7.0233814667401192e-03  9.4188124614752195e-03  7.2964233596459430e-03  6.7258338111863877e-03  9.0466797207514639e-03  7.9242649910925729e-03  9.6393215774622457e-03  9.4753009353006311e-03  6.9720196968816265e-03  6.7227894123562558e-03  6.7182357770281141e-03  6.7859990486078001e-03  8.1756039195676269e-03  6.9778224425498057e-03  9.2911261325557496e-03  6.7268126378283088e-03  6.7307820247050646e-03  6.7247038605765539e-03  7.4347139397890408e-03  7.3304256310394176e-03  8.0063436629456957e-03  7.0689695835316922e-03  7.9410428076526467e-03  7.0880176164801337e-03  8.9456759555986420e-03  9.0719907226494961e-03  9.0926683986692868e-03  7.0198776445206945e-03  9.1864453309128645e-03  8.7472453417736795e-03  9.2420220464550697e-03  7.5447750347815120e-03  8.4388431888153172e-03  8.4167332650913057e-03  7.4563398921794000e-03  8.1779726094306469e-03  8.0913541942718315e-03  8.0078954570242875e-03  8.3625871835899899e-03  9.1227714371284723e-03  9.2946684967810857e-03  7.0036369465553130e-03  7.6931499058942258e-03  7.6333332310949235e-03  7.1063846981211324e-03  8.9585676152916013e-03  6.8220071886155101e-03  8.1179024582194101e-03  7.5098051630200406e-03  8.4238792951793085e-03  8.8101160703271189e-03  8.0157790436738603e-03  7.5733902055846233e-03  7.9692671251137791e-03  8.6788516202063060e-03  8.5550866259596538e-03  7.4092712888485651e-03  6.9584425227145301e-03  8.8581279453649256e-03  7.1257322396932280e-03  7.0559364745654976e-03  8.1940381744508330e-03  7.6872039370096496e-03  8.6663369885497093e-03  7.6261128381730050e-03  8.9083861258558977e-03  7.0175024205292331e-03  7.9397084707919837e-03  7.8889519040762340e-03  7.4082507173363499e-03  7.3989230418789282e-03  7.3616447565002076e-03  7.2391140252379875e-03  7.2543260225245839e-03  7.3825891075972958e-03  8.2730872494342755e-03  7.5047273805056627e-03  7.8162040826739946e-03  8.1437223116578132e-03  7.7151054079406195e-03  7.6645976786570034e-03  7.1435463330283677e-03  7.9236607193471070e-03  7.5233374352379314e-03  7.4731414976321698e-03  7.4741653607925456e-03  7.5743338621520034e-03  8.0512474474710143e-03  8.0129224797641178e-03  7.8859054078534163e-03  8.3343134735849138e-03  7.1128979198140695e-03  7.2572547207333483e-03  7.2423920225794889e-03  7.3116111476306837e-03  7.3696451543905830e-03  7.2579804155456880e-03  7.2036169954013346e-03  7.8101330236133399e-03  7.9597543909637417e-03  7.0263374985256510e-03  6.8348037414480683e-03  7.0943380604605857e-03  7.8948309883296822e-03  8.2353579253670959e-03  8.5066124839573258e-03  7.7726090288456140e-03  7.3073771814010612e-03  8.6882738105763992e-03  8.1088910150668488e-03  7.1674022246007328e-03  8.9808083550514169e-03  7.4376455501942579e-03  7.2402574465022691e-03  7.2773836545078456e-03  6.8217145816748103e-03  7.1776976916597159e-03  7.0834343170151958e-03  8.2259550757834872e-03  7.9725959425329621e-03  8.0339335980424247e-03  8.4006718024686646e-03  7.5669992998443694e-03  7.4933133106891746e-03  7.7633445668007454e-03  6.9429567973645911e-03  8.2791982171428469e-03  8.0181795643333286e-03  8.2313248005327321e-03  8.3146414583553339e-03  7.2389849701360890e-03  7.0526033123946754e-03  7.3605542104175151e-03  7.0538412538108620e-03  7.3478180398615419e-03  6.9524929062901256e-03  7.0785669513337051e-03  7.4330885157297948e-03  7.8275341067668095e-03  6.9721029302239178e-03  7.2144589943252393e-03  7.5771683989823242e-03  7.2119756870348229e-03  7.3032069415590022e-03  7.3769202877379120e-03  7.1862471353462617e-03  8.18165198373