<?xml version="1.0"?>
<VTKFile type="UnstructuredGrid"  version="0.1"  >
<UnstructuredGrid>
<Piece  NumberOfPoints="6486" NumberOfCells="12696">
<Points>
<DataArray  type="Float64"  NumberOfComponents="3"  format="ascii">0 2.5 0  0 0 0  2.5 0 0  2.5 2.5 0  1.25 0 0  2.5 1.25 0  1.25 2.5 0  0 1.25 0  1.25 1.25 0  0 0.625 0  0.625 0 0  0.625 2.5 0  0 1.875 0  2.5 0.625 0  1.875 0 0  2.5 1.875 0  1.875 2.5 0  1.770833333333333 0.7291666666666666 0  0.7291666666666666 1.770833333333333 0  0.9375 0.625 0  1.875 1.5625 0  0.642361111111111 1.163194444444444 0  1.341594827586207 1.883979885057471 0  0.46875 0.46875 0  2.03125 2.03125 0  0.3626104797979798 1.513178661616162 0  1.381740196078431 0.4564950980392157 0  0.9375 2.172619047619047 0  2.172619047619047 0.9375 0  2.096354166666667 0.4036458333333332 0  0.4036458333333333 2.096354166666667 0  1.684027777777778 1.163194444444444 0  0.3418803418803419 0.8693910256410255 0  1.642742622813391 2.162164207604464 0  1.275619849389031 0.8465650753054845 0  0.9136284722222221 1.434461805555556 0  1.732437511238546 0.3406962303960658 0  0.9714402568595876 1.029779313093998 0  1.52281746031746 1.485615079365079 0  2.1875 1.71875 0  1.06819722569879 0.2997236128493951 0  2.136114211309524 1.303478422619048 0  0.3125 0 0  0 0.3125 0  2.5 2.1875 0  2.1875 2.5 0  0.3200021620376328 1.192323085056694 0  0.6738456129277992 0.8304377375553881 0  1.757891808928991 1.861952730357003 0  1.5625 0 0  0.9375 0 0  0.3125 2.5 0  2.1875 0 0  2.5 0.9375 0  0 0.9375 0  0 1.5625 0  0.9375 2.5 0  2.5 0.3125 0  0 2.1875 0  1.5625 2.5 0  2.5 1.5625 0  0.7448220909826522 0.3003573636608841 0  1.027298850574712 1.871151477832512 0  1.331260495098891 2.197262878816185 0  1.207917681892289 1.582765010956622 0  0.4339993447432606 1.801186844743261 0  0.6337298768939392 1.443093039772727 0  2.049851190476191 0.6826636904761904 0  0.6584821428571428 2.219122023809524 0  1.89575676467455 0.9798457973793544 0  1.437570562095628 1.059380588255917 0  1.502090052505845 0.6987070896496241 0  0.2040860661083546 1.705323965099331 0  0.2083333333333333 0.46875 0  0.5070952039991439 0.2211150679997147 0  0.6916302856529919 0.5813591430410241 0  2.265625 1.953125 0  2.2265625 2.2265625 0  1.886424081252096 2.243391360417365 0  1.40625 0.202164758520858 0  0.2269345238095238 0.2269345238095238 0  1.152730869673694 0.5225850378741401 0  1.885631899587912 1.312095130148776 0  1.614808884009367 0.9049784971014416 0  1.890095442220658 0.5126535558463003 0  2.323168682795699 0.46875 0  2.268811725689575 0.2304742875213018 0  0.6002389442105756 1.967426444210576 0  0.1768313172043011 2.03125 0  0.2311882743104251 2.269525712478698 0  2.03125 0.176831317204301 0  2.280262553344767 0.6954945504579233 0  1.979219539285994 1.809922269642997 0  2.336309523809524 1.09375 0  1.09375 2.336309523809524 0  0.9314042474388009 1.662973812215543 0  0.1634067999087722 1.40625 0  2.337090640094896 1.40625 0  1.141616997467638 2.069311773587991 0  0.46875 2.338939559681489 0  1.542440307908715 1.734944797244472 0  1.556713687786879 1.956977865354753 0  0.8264238995344066 1.975424467820646 0  1.466326331454725 1.275271369760862 0  1.655675324257095 0.5444159974393489 0  0.3385416666666666 0.6479255698005697 0  0 0.78125 0  0.5236073939200119 0.984090461540625 0  2.091665741047893 1.519793517904215 0  1.71875 2.5 0  0.5356538886262603 1.623137930505009 0  0 1.09375 0  0.1932884281517095 1.015625 0  0.8569313582417669 1.2198915584249 0  0.8876981284879677 0.8329884081524883 0  1.115618488474214 0.7219586973356271 0  1.186950366204949 1.043465130075318 0  2.057459118787237 1.110823087309335 0  1.830651283878689 2.049810069572418 0  1.689107969301489 1.367247437031697 0  0.4921048768039656 1.298643370653124 0  0.8213975694444444 2.336309523809524 0  2.03125 2.5 0  1.049729400480002 1.283723261332814 0  1.308101375801673 0.6489479469700392 0  2.5 2.34375 0  0.4968777175037714 0.7562964879736076 0  1.40625 2.5 0  1.501347663534097 2.307027627307738 0  1.602813712048603 0.1926218191360736 0  0.8393082906308107 0.463778306132633 0  1.682663349152719 1.598471865581041 0  0.7774174680851571 1.560004941327907 0  1.554204170364662 0.3898593897892066 0  1.842184459051087 0.186443880058197 0  1.358107417651776 1.696381759610015 0  1.18859291992392 1.77598670078022 0  0.1875331222687418 0.7609599743339348 0  1.339536743965101 1.422080365801479 0  0.7788179348750389 0.9955343414928611 0  0.9062978492805438 0.1919636509126373 0  1.256007360640958 0.3160320559396114 0  1.09375 0 0  1.174986727221844 0.1594990293443933 0  2.34375 1.796875 0  2.318026474511116 1.589177949022232 0  2.34375 2.5 0  1.672742954892153 2.332882724550692 0  0.2683637361947215 1.874801596909639 0  2.174770749820102 0.5581009131310781 0  1.443279522965991 0.8870068372898454 0  0.3385416666666667 0.3571428571428572 0  0.78125 0 0  2.060421048269335 2.314363248763811 0  1.088078737088509 0.8967352118723447 0  1.087825368444708 1.454931510884769 0  2.018308232129541 0.8548495425854904 0  1.943987311736842 0.3246298523011434 0  1.71875 0 0  1.85337849796276 1.144833312386208 0  2.3486328125 2.1044921875 0  1.407588788651747 2.042968789119587 0  2.336309523809524 0.865366648092144 0  2.34375 0 0  2.5 0.15625 0  0.15625 2.5 0  0 2.34375 0  0.1638044648294291 1.242263417405867 0  0.356216654757926 1.032569427322806 0  0.3188217956111817 1.355736727000647 0  0.5924956460852111 0.36112522004736 0  0.6594216488965849 0.1603472116132387 0  1.841804599497131 1.72214349266521 0  0.15625 0 0  0 0.15625 0  2.115898634821499 1.894570904464496 0  0.7821877980253907 0.7129993435924866 0  1.003820447087786 0.4516053462784233 0  0.477562948779147 1.138333049293613 0  0.719493678605015 1.305655360135975 0  0.9772457618587566 2.020350128938537 0  0.8764738248887107 1.826219722709673 0  1.254787875123819 2.339010653832026 0  2.343597354852534 1.249982759769001 0  0.78125 2.5 0  0.46875 2.5 0  2.5 1.40625 0  1.09375 2.5 0  2.5 0.78125 0  2.5 1.09375 0  2.03125 0 0  2.5 0.46875 0  1.40625 0 0  0.46875 0 0  0 0.46875 0  0 1.40625 0  0 1.71875 0  0 2.03125 0  2.5 1.71875 0  2.5 2.03125 0  2.005424054645407 1.653223486966518 0  0.1538730573856537 1.559850281736677 0  2.33984375 2.33984375 0  1.166539506212474 1.922878979538754 0  0.3914885633949916 1.65887232812171 0  0.5795503163042564 1.766243562569382 0  0.399533125920212 1.946786875081388 0  0.7866324979014098 2.127719094551316 0  0.3654683023546834 0.1495701132219454 0  0.1527388747131078 0.6116379440619215 0  2.013737577140188 1.391056634712135 0  1.17635437372994 2.213329084238133 0  1.737118141866284 1.010577140843115 0  2.200707118087222 1.164723314085963 0  1.697018908736685 1.993548551451517 0  0.5387621649009668 0.6070503962352419 0  2.032805785855952 0.5330427622570983 0  1.082699501358059 1.667818725183932 0  1.503819781540653 0.5468420196858188 0  2.015409142866072 2.175941657590429 0  1.752057611265444 0.869642097111018 0  0.612251684107783 2.356045720700959 0  1.902817102342857 0.6607642211999982 0  2.159616561739693 0.7867739969338844 0  0.5120038350106624 2.197302352398502 0  1.888200216011548 1.919501662489862 0  1.495909909726654 2.16028358757309 0  0.489139876703609 1.443203008943564 0  0.8819175670410521 0.3301172743913011 0  1.882591144370812 0.8155965192707721 0  1.133979796994841 1.172526771862882 0  2.206217447916667 2.084147135416667 0  2.20361328125 2.36279296875 0  1.395746985657004 1.556054166359645 0  1.704383111516207 1.734750450338683 0  0.9575737847222222 2.36274223823052 0  1.035150984253136 0.1302833343179028 0  1.383966125325753 0.7651479963479179 0  1.64003252158672 0.6824316405528895 0  2.22550785055421 1.487078576356817 0  1.760964431499756 1.48495222505201 0  1.276460980673788 2.004207003584658 0  0.1341477688427096 1.828777507920502 0  1.542261434180652 1.155296658359034 0  1.334627911613854 0.9696897472490321 0  1.30794231473696 1.119420615785191 0  0.7028260459857245 0.4438906910721139 0  1.625757433094055 1.84268057552138 0  0.9818707849053143 1.165603626132254 0  2.0086489901463 1.243134585689553 0  1.934584460420609 2.374094051915812 0  1.798434376789567 2.38671361912528 0  1.206314791201715 1.382064292497919 0  0.6333752893366955 0.7023738550008095 0  0.7796219811205605 1.42573253164258 0  1.564399711917382 1.026040828857629 0  0.3385416666666666 0.4889012896825397 0  0.1041666666666667 0.390625 0  0.989112246382566 1.543537365516289 0  2.025724425454636 0.9846960595520872 0  0.6602885475034063 2.086117390485779 0  1.607130551925032 1.267198646640915 0  0.1317864544877056 0.8896173683400176 0  1.755387840017567 2.230364320056445 0  1.301540702984401 0.1216289692748247 0  1.433170657577442 0.3331052752740999 0  1.500459610550388 0.113513924782439 0  0.6494291520606965 1.029586599619295 0  1.010146149868299 0.794897284196169 0  0.3700844198238017 2.235390157870766 0  0.3360891767780704 2.36656279435396 0  1.876856241037701 1.437150669863757 0  1.778674102957329 1.245979347269706 0  0.5472829890977179 0.1005517127039925 0  0.4669074189005698 0.3416784232954367 0  1.472765289289269 1.850899166481903 0  1.555853593327178 1.608452097912802 0  0.6708955559113426 1.646561631116984 0  0.8164699620322933 0.5924479455478063 0  0.3167738989468366 1.758696809749795 0  0.2788007305565096 1.605499483471246 0  0.7821720982350511 0.181524936294752 0  1.376812251214195 2.313340247908297 0  1.785652202614777 0.5962261755537186 0  1.761467296310972 0.4679567244718574 0  2.2265625 1.8359375 0  2.3828125 1.9140625 0  0.5279531607054191 2.071552361614785 0  2.397573269551114 0.234375 0  2.383578172599618 0.3589298466020009 0  0.1024267304488855 2.265625 0  0.1164218274003825 2.141070153397999 0  0.2696857594953064 2.135405441512016 0  2.164961300137334 0.1375322943529536 0  2.137757548369486 0.2724194778647587 0  2.238873711826398 0.3626419179496562 0  0.1001414910226386 0.234375 0  0.2176339285714286 0.3478422619047619 0  0.2503620791333544 0.1061694061057066 0  2.336445461915368 0.1250451055247424 0  0.2154004640409726 2.3918124
[...]
<PointData  Scalars="f_124-3"> 
<DataArray  type="Float64"  Name="f_124-3"  format="ascii">1.1130231796099921e-02  1.2765861069584593e-05  6.2693555141475295e-07  1.8685179580301477e-03  8.7319128210775637e-06  2.0928020193467446e-05  1.1820170733171665e-02  2.9144151313713368e-02  1.1623242115420554e-02  2.9070734431167554e-02  1.3397634545746487e-05  1.1748407656291761e-02  2.6382710145795813e-02  4.5590551444396125e-07  3.8261847584270010e-06  8.6152777340944744e-04  8.5438343433886545e-03  1.5472525508682021e-05  2.7760626311461496e-02  1.6885824121333918e-03  4.2446951506744900e-03  2.7817331011676924e-02  2.3088605455785935e-02  9.0307561462741655e-03  8.0765645024115183e-03  2.8922789507274557e-02  1.2261410322827983e-05  2.1014333656574992e-02  8.6906253780404888e-06  2.1066574791320038e-06  2.2463335690305130e-02  1.3138892964747108e-03  2.9029629152654435e-02  1.6709350661875292e-02  1.3007622176559584e-03  2.6592201462205835e-02  4.8072803422188858e-06  1.3344835450793176e-02  1.0610540546573120e-02  2.0606852044292427e-03  1.4561096086599338e-05  3.0032570588547404e-04  1.4418883777364044e-05  1.0503572708280685e-02  1.8351738466037297e-03  4.7474830844616376e-03  2.9175427144391766e-02  1.8039917966701881e-02  1.2790239079626436e-02  6.1954392672988979e-06  1.1168752487683217e-05  1.0966973461597130e-02  1.7325185532021544e-06  1.0257426149747367e-06  2.9174746746191908e-02  2.8799266893037009e-02  1.1703760418406955e-02  5.1832030464185990e-07  1.9800587504245348e-02  1.0782862944831580e-02  2.0963698269711099e-04  8.9310264678669251e-05  2.6174929882504021e-02  1.9260764749735055e-02  2.2692379454739075e-02  2.7557920316566020e-02  2.8872945767454750e-02  2.9515839788580951e-06  1.9367791095801386e-02  8.8340249724446591e-05  2.2913109930797564e-03  7.1677925582494897e-05  2.8235125387230078e-02  2.1282372646436811e-02  1.7552031239484144e-04  5.2895732059967809e-03  2.9865666676007008e-03  5.0295276697937714e-03  1.1374628257818292e-02  7.5306188620383312e-06  3.2589363457005437e-03  9.4945272120772320e-05  1.1919556096170842e-03  2.7943615845965033e-04  3.6607086855398442e-06  9.2740089365819909e-07  1.2346060882408206e-06  2.5419564305101502e-02  2.3731008130356415e-02  1.7441268247112438e-02  2.6089055794657099e-06  1.1873903709065197e-06  6.3463240972628978e-03  1.3721648304784754e-05  1.6145931918414763e-02  2.7609269373440826e-02  2.9066354457157551e-02  1.8846905627509743e-04  2.2970303731012581e-02  1.5693257785141520e-02  1.6584391595190814e-02  1.9070686298435398e-02  2.5415220678853510e-02  6.0500524568293124e-03  7.3802404337195211e-06  2.6261878531023415e-02  2.9171673481720419e-02  2.7737523369940762e-02  1.3215365618723168e-03  1.0010376978725446e-02  2.8615119110543021e-02  2.9167251217723508e-02  2.9199522052649800e-02  2.4108216012653217e-02  8.5092010063312490e-03  1.2004994570304099e-03  6.8296528647427508e-03  1.0711284812558753e-04  1.2754799102072443e-02  3.8112527173157565e-03  2.9084161012796133e-02  1.6106648782750838e-02  6.7819632487030089e-03  1.9653034276256042e-02  1.4568741627566544e-04  2.0263144448355586e-03  2.3539395527659338e-02  1.1389356328392376e-02  1.5541051864349061e-02  5.8843781239862855e-06  5.7178564292832440e-04  9.0339121606768900e-03  2.8443087626620730e-02  6.7021353310876155e-06  3.8782676111275802e-06  2.0984871819478893e-02  2.5239690609349684e-02  2.9418481599101241e-02  1.4161044882608434e-02  2.0020525957896867e-02  1.2824283641162206e-05  9.7915281098530287e-06  9.9459830159632349e-06  9.5476874769707573e-06  1.3102519306567421e-03  6.2028120341969556e-04  3.0286678052574697e-03  1.3529326419792084e-02  2.6693463869825483e-02  1.5911973520832560e-06  6.6251460503708099e-04  9.2392355401307875e-03  1.2279274047301401e-05  7.7267611604188704e-03  4.9255150315576706e-03  2.3086911541848908e-02  1.0760739251527950e-05  3.1379275707983628e-06  5.0262128384957748e-06  4.5766484336542631e-04  2.8954136428418825e-03  2.1234538170422926e-02  1.5170923477271176e-06  1.0821249922787492e-06  5.8827808336244599e-07  1.1085409038157761e-02  1.4685744268954774e-02  2.9145128102055499e-02  2.9190695104154566e-02  2.9101127800272207e-02  1.0727879334086114e-03  1.8706514154758994e-05  7.8633641022711736e-03  1.1978110430646233e-05  6.0091136418587545e-04  4.7799972760518943e-03  7.3199840740406641e-03  1.3318419820653607e-04  2.8999722098515490e-02  2.8023679337665086e-02  2.4479965446226607e-02  2.7111163751706888e-02  1.6019066428660553e-02  5.2372735614167418e-05  1.1693991128926533e-02  1.1128011985402751e-02  7.1071554067856426e-05  1.1792058256104215e-02  5.1886027354837973e-07  4.2400479063576317e-06  2.7287393973029937e-06  4.6888064506619124e-07  7.3598765441539974e-06  1.4471821471610683e-05  2.0906595963112482e-02  2.9065726188137277e-02  2.8114796503884026e-02  2.3903700083216753e-02  4.6834755609398838e-04  1.3659088495424582e-03  3.4442047859924068e-03  2.8807081101194797e-02  3.4392605128663817e-03  2.4944297542047234e-02  2.8528409085568883e-02  2.7831127558853412e-02  2.5685955323522726e-02  2.2183357395488362e-02  9.9793748498463295e-05  2.9578414480402191e-02  1.0005589443674127e-03  1.9766966998879764e-02  3.1874832552435540e-04  6.1739294020114421e-05  1.5876009086824013e-02  1.3728174902555795e-02  2.5557644162235860e-06  2.6198638620674692e-02  1.3524190965599424e-05  8.9014685709386549e-03  7.2399585968386900e-05  1.5253123403684753e-02  4.7789818253949248e-06  2.7063016086402524e-06  1.9976243836072147e-02  1.0216287969484854e-02  1.8613002190331681e-02  2.9011864995493849e-02  5.6869749574841711e-05  1.6414813738853683e-05  1.2913923665708836e-02  4.8861218888625550e-03  5.0484712520155435e-03  1.6367025952409315e-02  1.1835231744086750e-02  1.5272698882620917e-02  1.0627512320835634e-05  3.1709424294622593e-04  2.1725453549668410e-05  5.8476085571825670e-04  4.8757908910199233e-03  2.3235279308582671e-02  2.7231958561470194e-02  2.4236013635699997e-03  2.1584193322030060e-03  5.7763953964414519e-03  1.4049715421539362e-03  1.6144819868326721e-02  1.8314629466427989e-02  4.2415768036958916e-04  9.3266790964505672e-03  1.0966698279669240e-02  1.7561003960650728e-02  1.3930357666490657e-02  2.8204495625287537e-02  9.6471574719652351e-04  1.9274813963401454e-02  1.5802163875257114e-02  2.6639911004408347e-02  3.8168206130362085e-05  2.2920931106348883e-02  3.3425735235443270e-03  2.9214672122175638e-02  1.4109252321621468e-02  8.3581098128523541e-06  7.7079034237560664e-06  6.6850700349391504e-06  2.5739557306315611e-02  3.9556958103761928e-03  1.8754759171087664e-02  1.4483361378426896e-02  2.3757522432357402e-03  1.3687540948443618e-03  1.6392053352670777e-05  2.5230979473216120e-03  2.0267525990187094e-02  1.2838384307496058e-02  2.8433253164253099e-02  2.8628970765292141e-03  2.7900137674454602e-02  2.8702627998360420e-02  1.5989405879029359e-05  1.6115779991928286e-02  5.7878852650398625e-06  4.7791677754052964e-06  2.6320598043316100e-03  1.5738165556199934e-03  2.3245426514697600e-02  7.4374186624715437e-07  7.6876055637888855e-07  1.7558402520460471e-02  2.1365801644312975e-02  2.1451539225547982e-02  1.7974695045574047e-06  1.9188185990784229e-06  1.3782614983102274e-06  4.6288329687175786e-03  1.3173325911216456e-02  4.4039266283088789e-05  1.0048381919040680e-06  1.3571375032467043e-02  1.9674241341032163e-02  8.1613249692681427e-05  4.9372025579944232e-06  5.7686092894293516e-04  2.0483320134392323e-05  4.2246210757954202e-05  2.4810301159198134e-02  7.1145230150603941e-03  2.4628724312277316e-02  2.5488951051966642e-02  3.3275592775758211e-06  7.6517985149321740e-07  8.0623154400407304e-07  2.8622619149582386e-03  4.6159792516534673e-03  2.6483949765033151e-02  2.6513116221122429e-02  1.8397568562449854e-04  1.2875237516061630e-03  6.7831674046355773e-03  3.9398945784668852e-06  2.7295589607327066e-02  2.8091832617241883e-02  2.7079119514279996e-02  1.8207257807513376e-06  1.1884966509858681e-05  1.8853913259734794e-05  2.1371533033039469e-02  2.9173673556283065e-02  2.9364682437706080e-06  2.9328432909133208e-02  2.8748505754904959e-02  3.5778327184636362e-03  7.5695780886947586e-03  2.8711077019347434e-06  1.3658363116681624e-02  2.9010543387566933e-02  2.9118263040707644e-02  1.9120375957047000e-04  1.7607077701510426e-04  1.9303972134962127e-02  5.5927974716986208e-06  6.4625425582789549e-05  1.1256684569218228e-02  4.3538819507587280e-06  4.6136896943965651e-04  1.7994841846372223e-02  4.7347198747674027e-03  1.3979820310999695e-02  2.4144415241590594e-02  2.8874923375825763e-02  1.8756462255598082e-02  2.6866509840457905e-02  5.7960385833157298e-06  2.8544370461264418e-02  2.9157921505240950e-02  5.9858971549034110e-05  1.5085234339852731e-05  1.3224928551461814e-02  1.3273649952970245e-02  2.4649616066552416e-03  2.5060503942724312e-03  6.0998397997008731e-04  3.0589335182617455e-05  6.2096255301528833e-03  6.5843791822667460e-06  1.5189613439698438e-02  2.3542654450877276e-02  2.5999933490654950e-02  1.0264768620274681e-02  2.8983165680149046e-02  1.2593029446364618e-03  6.6674079836125865e-03  1.7177469821199789e-02  1.2592394854856227e-02  3.5275611421735453e-03  1.2590036985656703e-02  2.4154512274334197e-02  4.7007531531086744e-03  1.2213036031277538e-02  8.7208876313341430e-03  6.0892498399863209e-06  2.6842884382215552e-02  2.6376662042355944e-02  2.4962602335513857e-02  2.4931607323601064e-02  2.2323690057105557e-02  4.8583288244132268e-06  2.7812267423274348e-02  1.6614309903276483e-05  1.3891290557002770e-04  1.9309416165036772e-02  2.9280480162389870e-02  1.3920396116530884e-02  4.8274533980283947e-03  1.0549805209869636e-02  5.6368912376524217e-06  1.1283071132538942e-03  2.3579821825043451e-02  2.3631344130692494e-02  2.9177528295856618e-02  1.3503646701568310e-04  3.1740834576290818e-05  1.8628869630227505e-02  1.7676217069142173e-04  1.3199287774324588e-02  2.8762517433639504e-02  2.3590943979437895e-02  7.9177010332944346e-07  2.8466005495173598e-04  6.8604110742990750e-04  1.9743817029451581e-03  1.5455263740466891e-06  2.8242591453231099e-02  2.8837284723351377e-02  2.3930041100325601e-03  2.1606889263265698e-02  2.8174129269826917e-02  1.1346505795469098e-02  1.5619669715817314e-02  2.1687394537167323e-02  8.9005045524315624e-03  1.6481002754181368e-02  2.8995544925294270e-02  2.9152106712296406e-02  2.6996434142741912e-02  8.3414605358459459e-03  1.3165155480268269e-02  1.0363743258321784e-02  1.2798686363768879e-05  2.1031032285551317e-02  1.3466847594322633e-02  1.7128162499904124e-02  2.5234682293359878e-06  8.8518030121099949e-06  2.4783807517893868e-02  7.5071551716682362e-06  1.9775484027980308e-02  1.2935339761378028e-05  1.1536819515507100e-06  2.8039003517786140e-02  8.5734758096835985e-03  4.1337352003347336e-06  3.8091184076123503e-03  1.9940925655495562e-02  1.2781010901016630e-02  9.5147159140616770e-05  1.7453795361352961e-05  1.3885131987280652e-06  2.4707358913677722e-02  2.9170496653324298e-02  1.7706284109534953e-02  2.3347868146038767e-03  2.7645635682124220e-06  1.1619127479722819e-02  1.9401162404660511e-03  2.6414810817030343e-02  1.9998606885109155e-02  2.9229698933747765e-02  1.9884147639606976e-02  1.4987877895447477e-05  2.9139958465297534e-02  2.1659638566080560e-06  2.3811789892135773e-06  2.9088112685473646e-02  1.7977648229294780e-02  2.8745097822792224e-02  7.6438196124714229e-06  2.9192522906778283e-02  3.1770487729829281e-06  3.2109405394566880e-04  9.7888954051006979e-04  1.0363357430822987e-05  9.4511126476516485e-06  8.2850338251073094e-06  2.3528973984105112e-02  2.4456661455033394e-02  2.0832289639205311e-02  3.4033888390601139e-05  1.1018034319882316e-02  9.5364644561288219e-03  6.1888555573500984e-03  1.7428847800604635e-02  2.8782771024016645e-02  1.0445916538002588e-02  1.9863133013736075e-03  1.0634482416469204e-05  2.7105558168330386e-02  2.1657138058056039e-02  2.8718542296396598e-02  8.3400386200655177e-06  2.3476986195566170e-03  6.3132402483707549e-04  6.5298947670303637e-07  3.6105674333100071e-04  5.7796062612244553e-04  1.2969749145352162e-02  2.6121020862542962e-02  6.5675270270664290e-03  3.1358108935881701e-06  1.2529143448891677e-03  8.7150936597347409e-03  1.4776932578262222e-05  4.5030238568684829e-07  6.4109173751245015e-07  1.3752103849405119e-02  1.1219527755200329e-05  2.7163479804886564e-02  2.7579218564776940e-02  1.1526843268960339e-04  7.7482537413385288e-03  3.8775169142582116e-05  2.1057136655496050e-02  4.7204422435247157e-04  2.8859879853081263e-02  2.3949226637331208e-04  2.7393164693892080e-02  2.5025883415595737e-02  1.2931094138867023e-02  1.3457486896911805e-02  9.9231738632497128e-06  2.7153900269566976e-05  7.7054097671241046e-03  1.3210617693989039e-06  1.9959572001860843e-02  2.6641485194767028e-02  5.7788603421909176e-04  2.3292666694423828e-04  5.1697171730014837e-03  2.3943504637158202e-02  3.4413230866866575e-03  2.1084973941179535e-06  9.0281063781056827e-06  4.7621840340322092e-07  1.2848208937146111e-05  4.2488855161157416e-06  3.1130461110354911e-05  1.0198422468286942e-03  2.0732588782538526e-03  7.1957036767188892e-04  6.1593482804941180e-07  2.1409483407273375e-02  1.9675171532550493e-06  2.9202101481647372e-02  2.9165090102591232e-02  4.6700993653065489e-04  1.5336041999232419e-02  1.1339768403913399e-02  2.1252900631385154e-03  2.2707525203017431e-03  4.1429121194974409e-03  1.0954803023161283e-03  1.3595566701740515e-03  1.0313961163668649e-06  2.0004052142282926e-02  2.7598268066012423e-02  1.3168239771505576e-04  5.3242064145095349e-03  1.7185041259838954e-02  1.3622247223417346e-06  7.3289240041222448e-03  1.7203536602388544e-02  8.2108720401919636e-03  2.5774144441863229e-02  7.4167440330252505e-07  6.4489454395464576e-03  2.9175671689237983e-02  6.3533960416403425e-07  1.5616948758777314e-02  6.6338960487054507e-06  9.0526220838311749e-06  1.9945632829253920e-02  2.5272531749994730e-03  1.3895672170082508e-02  1.2269899270785485e-02  1.9403829373051890e-03  2.9332214301000741e-02  2.8872529011018441e-02  2.3193117829241050e-02  8.2919302093656307e-05  1.1299469392981582e-06  2.7611944338803117e-02  1.5578149076599579e-02  3.1814134296366566e-05  6.1082018001480673e-05  1.0914212417227789e-03  1.3364367192580938e-02  2.9242590332348363e-02  2.8755538553078309e-02  1.4616291066930317e-02  2.9142836770496738e-02  4.4199844025682861e-03  6.8859869292141931e-05  3.2112022127505681e-04  4.4395940895858239e-05  9.9601112403784834e-04  2.9097829867974791e-02  4.6467271106677307e-04  1.4067537679188209e-05  5.1449665064188306e-05  3.8864205239455699e-03  5.9289280645428944e-04  6.5004017594873622e-06  1.8979295798216994e-06  1.7680885029017011e-02  2.5263189519318018e-02  3.2081663010640970e-03  2.9034096242019341e-02  1.0785246775546566e-02  1.0842918171292088e-02  3.3730670935695677e-05  1.0611880503703751e-05  3.6507344248814522e-03  1.2434414317473601e-06  3.5213676453459725e-03  2.2738048142499120e-02  7.6711746566376412e-03  2.9842362214544667e-03  4.9894933584581583e-03  2.0922989275019456e-04  1.7578768405398251e-02  1.6025601866591865e-02  1.2535523964624333e-05  1.7393909062260070e-05  6.3004204752617901e-03  8.0230433363736768e-06  3.8696843920473407e-03  1.1526518273943043e-03  2.1704859065992177e-02  5.9355859124710497e-07  8.0139035631263435e-03  1.2414136795307838e-02  2.0020715783619143e-04  2.2607511899250072e-03  2.8037946847361397e-02  2.7582111616283569e-05  7.8177733312891021e-03  2.0460870482722637e-05  1.5630524702046072e-06  2.5011544270203672e-06  1.1609344422632279e-05  5.7516695113704047e-05  2.3658201141631811e-02  2.8339605530104218e-02  2.1414862351024817e-02  2.3959542237539939e-02  2.6646554529655003e-02  9.6937099310326052e-03  4.9443176989322265e-06  1.0338056635194881e-02  2.0880099735520387e-02  2.2241199469834341e-02  1.8175662349968035e-03  1.0131728400804396e-04  3.1680248524128640e-05  2.1825342209409206e-02  2.9144349180315308e-02  1.2949417332128833e-02  2.9000309633618197e-04  9.3129540385378676e-06  3.7905374506039279e-03  1.1747321376352421e-02  5.8078478430569069e-03  1.2673527270304984e-02  1.1209526891680735e-02  1.1538254095951647e-02  2.8540451914646391e-02  1.1791274445042367e-02  3.2874462075729318e-04  4.3423453736017340e-06  5.6302676356079102e-06  9.5201827668992376e-06  3.7800695333962836e-05  1.2850736184634950e-04  2.9171906558274136e-02  2.9158241066991851e-02  2.9119432810009765e-02  1.1826144825090097e-02  2.9149138673187636e-02  1.1712408253205356e-05  3.2760124091205989e-06  2.5414879114581648e-02  1.0983066459118325e-02  1.3337626178931164e-05  1.7068338270520667e-02  5.4686467248773361e-07  1.4018849094606544e-05  6.8388089488024099e-06  4.6895991695544799e-03  1.5739775685911436e-02  9.3152029245317704e-03  1.9552546737728045e-03  1.9900435511612307e-03  2.2999984273441177e-03  2.8953820256537612e-02  1.1001451379591003e-02  2.6445117520126064e-02  6.4155373846600840e-04  1.6161540657165885e-03  4.9092978714274208e-07  7.8000612845651859e-06  1.9769044230470274e-02  2.6912035172587213e-02  1.3260883761118062e-02  3.3631238269063981e-05  1.3638267394758067e-02  7.3571994481791735e-03  1.8823854203356600e-02  1.2256981459436607e-02  1.8131960102155894e-03  1.5682465738585569e-05  1.6175323687526402e-02  2.8760377288912065e-02  2.4224820396016245e-02  2.6692317110468766e-02  2.1459931567247627e-04  2.3032607728711935e-02  2.8989025733790318e-02  2.8821474930663532e-02  2.8630300656505462e-02  2.9113295681135663e-02  2.9566123310064484e-02  2.6378290453433768e-02  2.8340441864773428e-05  1.8559298869433149e-02  2.5517256085643064e-02  1.4509563964506034e-04  1.8648716841339914e-02  1.2015167301948894e-04  2.8879355080061418e-02  2.3607986650586419e-02  1.5509128039471978e-02  2.9141085194098602e-02  1.4107034915867730e-02  2.4985486721005309e-02  1.2321287471575681e-05  2.4039500196142038e-02  2.0667572932760805e-02  3.3292645472272647e-06  8.7308842951719909e-06  2.6278453447151229e-02  4.6960301475704646e-06  1.6863025628671206e-06  2.7833505118831290e-02  6.9186321976588130e-04  3.2329879352053256e-03  2.2875730506713952e-03  3.5540616349893227e-03  1.0611063210527753e-03  2.8367124661614229e-02  2.8044585560265286e-02  1.8058976358073960e-02  1.3680772114776519e-03  7.9162282596362016e-04  1.0543860038137122e-03  5.3261628118585365e-04  2.1457516494913065e-02  2.9068473037314912e-02  2.2896863503792244e-02  2.7715302923127988e-02  5.9729293530460192e-04  2.6791179474040635e-02  2.6253851058198316e-02  1.4717500297459798e-02  1.2645092973619986e-03  6.9286124422483899e-06  4.3185607464971407e-06  2.3193578930373257e-02  2.4237810907679676e-02  2.8760349129649219e-02  2.8648689835253212e-02  2.8146196000638078e-02  6.3024580831985630e-03  1.6984902297712779e-06  1.8403431658838228e-02  1.7852296344034679e-02  1.9473252057373117e-02  2.0468604080603921e-02  1.8270326197604072e-02  1.4733848361668791e-02  7.7078813559325037e-03  7.2178649843085241e-06  7.7953662110792480e-04  9.0339891918098225e-07  3.2364215002976055e-04  2.6836557262846644e-02  2.8666347722028283e-02  2.9157380920207737e-02  4.5980067296168582e-03  2.8284352941629732e-06  7.9113551052414424e-03  8.1225957646638810e-06  1.2762186266512347e-02  2.6637312416981942e-02  3.5086477385451554e-06  8.3262343276426804e-03  1.0348380463221016e-02  1.6108029813929575e-03  2.5796103181333202e-06  1.2514780737197138e-02  2.9022820803992929e-02  1.9002514007841715e-02  7.0632188368089854e-03  2.9127633066769503e-02  1.7613011279094096e-02  1.4315157390427411e-02  2.7232445128613038e-02  9.7894338327103571e-07  3.4114601523344066e-05  2.4650300097076906e-02  2.8971957298065492e-02  2.9067826440897834e-02  1.7407946358925622e-02  1.3179285398998739e-02  3.0966676719271357e-06  1.2255031216721864e-02  4.0064306786244945e-06  1.2048844666702784e-06  6.4357239624852928e-03  2.2039269699203324e-02  6.2166064769026831e-06  4.4201016028650444e-03  2.2279876730497007e-06  2.0615296524695518e-02  1.6960256717741620e-02  1.9194088465821407e-02  2.1063029919251946e-02  1.6368650779823093e-02  2.23383254697