<?xml version="1.0"?>
<VTKFile type="UnstructuredGrid"  version="0.1"  >
<UnstructuredGrid>
<Piece  NumberOfPoints="6486" NumberOfCells="12696">
<Points>
<DataArray  type="Float64"  NumberOfComponents="3"  format="ascii">0 5 0  0 0 0  5 0 0  5 5 0  2.5 0 0  5 2.5 0  2.5 5 0  0 2.5 0  2.5 2.5 0  0 1.25 0  1.25 0 0  1.25 5 0  0 3.75 0  5 1.25 0  3.75 0 0  5 3.75 0  3.75 5 0  3.541666666666667 1.458333333333333 0  1.458333333333333 3.541666666666667 0  1.875 1.25 0  3.75 3.125 0  1.284722222222222 2.326388888888889 0  2.683189655172414 3.767959770114943 0  0.9375 0.9375 0  4.0625 4.0625 0  0.7252209595959597 3.026357323232324 0  2.763480392156863 0.9129901960784315 0  1.875 4.345238095238095 0  4.345238095238095 1.875 0  4.192708333333333 0.8072916666666664 0  0.8072916666666665 4.192708333333334 0  3.368055555555555 2.326388888888889 0  0.6837606837606839 1.738782051282051 0  3.285485245626782 4.324328415208927 0  2.551239698778062 1.693130150610969 0  1.827256944444444 2.868923611111111 0  3.464875022477093 0.6813924607921316 0  1.942880513719175 2.059558626187995 0  3.04563492063492 2.971230158730159 0  4.375 3.4375 0  2.13639445139758 0.5994472256987903 0  4.272228422619047 2.606956845238095 0  0.625 0 0  0 0.625 0  5 4.375 0  4.375 5 0  0.6400043240752655 2.384646170113389 0  1.347691225855598 1.660875475110776 0  3.515783617857982 3.723905460714006 0  3.125 0 0  1.875 0 0  0.625 5 0  4.375 0 0  5 1.875 0  0 1.875 0  0 3.125 0  1.875 5 0  5 0.625 0  0 4.375 0  3.125 5 0  5 3.125 0  1.489644181965304 0.6007147273217681 0  2.054597701149425 3.742302955665024 0  2.662520990197781 4.39452575763237 0  2.415835363784578 3.165530021913244 0  0.8679986894865213 3.602373689486522 0  1.267459753787878 2.886186079545454 0  4.099702380952381 1.365327380952381 0  1.316964285714286 4.438244047619047 0  3.7915135293491 1.959691594758709 0  2.875141124191255 2.118761176511833 0  3.00418010501169 1.397414179299248 0  0.4081721322167092 3.410647930198662 0  0.4166666666666666 0.9375 0  1.014190407998288 0.4422301359994293 0  1.383260571305984 1.162718286082048 0  4.53125 3.90625 0  4.453125 4.453125 0  3.772848162504192 4.48678272083473 0  2.8125 0.404329517041716 0  0.4538690476190476 0.4538690476190476 0  2.305461739347387 1.04517007574828 0  3.771263799175824 2.624190260297553 0  3.229617768018734 1.809956994202883 0  3.780190884441317 1.025307111692601 0  4.646337365591398 0.9375 0  4.537623451379149 0.4609485750426037 0  1.200477888421151 3.934852888421152 0  0.3536626344086022 4.0625 0  0.4623765486208503 4.539051424957397 0  4.0625 0.353662634408602 0  4.560525106689535 1.390989100915847 0  3.958439078571988 3.619844539285994 0  4.672619047619047 2.1875 0  2.1875 4.672619047619047 0  1.862808494877602 3.325947624431087 0  0.3268135998175443 2.8125 0  4.674181280189791 2.8125 0  2.283233994935276 4.138623547175983 0  0.9375 4.677879119362977 0  3.08488061581743 3.469889594488945 0  3.113427375573758 3.913955730709506 0  1.652847799068813 3.950848935641292 0  2.932652662909449 2.550542739521724 0  3.311350648514189 1.088831994878698 0  0.6770833333333333 1.295851139601139 0  0 1.5625 0  1.047214787840024 1.96818092308125 0  4.183331482095785 3.03958703580843 0  3.4375 5 0  1.071307777252521 3.246275861010018 0  0 2.1875 0  0.386576856303419 2.03125 0  1.713862716483534 2.439783116849799 0  1.775396256975935 1.665976816304977 0  2.231236976948428 1.443917394671254 0  2.373900732409897 2.086930260150635 0  4.114918237574474 2.221646174618671 0  3.661302567757379 4.099620139144836 0  3.378215938602977 2.734494874063393 0  0.9842097536079312 2.597286741306247 0  1.642795138888889 4.672619047619047 0  4.0625 5 0  2.099458800960004 2.567446522665629 0  2.616202751603346 1.297895893940078 0  5 4.6875 0  0.9937554350075428 1.512592975947215 0  2.8125 5 0  3.002695327068194 4.614055254615477 0  3.205627424097207 0.3852436382721472 0  1.678616581261621 0.927556612265266 0  3.365326698305438 3.196943731162083 0  1.554834936170314 3.120009882655813 0  3.108408340729323 0.7797187795784133 0  3.684368918102174 0.3728877601163941 0  2.716214835303553 3.39276351922003 0  2.37718583984784 3.551973401560441 0  0.3750662445374837 1.52191994866787 0  2.679073487930202 2.844160731602957 0  1.557635869750078 1.991068682985722 0  1.812595698561088 0.3839273018252746 0  2.512014721281916 0.6320641118792227 0  2.1875 0 0  2.349973454443689 0.3189980586887866 0  4.6875 3.59375 0  4.636052949022233 3.178355898044465 0  4.6875 5 0  3.345485909784306 4.665765449101383 0  0.536727472389443 3.749603193819277 0  4.349541499640203 1.116201826262156 0  2.886559045931982 1.774013674579691 0  0.6770833333333334 0.7142857142857143 0  1.5625 0 0  4.120842096538671 4.628726497527622 0  2.176157474177018 1.793470423744689 0  2.175650736889416 2.909863021769539 0  4.036616464259081 1.709699085170981 0  3.887974623473683 0.6492597046022868 0  3.4375 0 0  3.70675699592552 2.289666624772415 0  4.697265625 4.208984375 0  2.815177577303495 4.085937578239174 0  4.672619047619047 1.730733296184288 0  4.6875 0 0  5 0.3125 0  0.3125 5 0  0 4.6875 0  0.3276089296588581 2.484526834811734 0  0.712433309515852 2.065138854645612 0  0.6376435912223634 2.711473454001295 0  1.184991292170422 0.7222504400947201 0  1.31884329779317 0.3206944232264773 0  3.683609198994263 3.44428698533042 0  0.3125 0 0  0 0.3125 0  4.231797269642997 3.789141808928991 0  1.564375596050781 1.425998687184973 0  2.007640894175573 0.9032106925568466 0  0.955125897558294 2.276666098587227 0  1.43898735721003 2.611310720271951 0  1.954491523717513 4.040700257877075 0  1.752947649777421 3.652439445419346 0  2.509575750247638 4.678021307664052 0  4.687194709705067 2.499965519538002 0  1.5625 5 0  0.9375 5 0  5 2.8125 0  2.1875 5 0  5 1.5625 0  5 2.1875 0  4.0625 0 0  5 0.9375 0  2.8125 0 0  0.9375 0 0  0 0.9375 0  0 2.8125 0  0 3.4375 0  0 4.0625 0  5 3.4375 0  5 4.0625 0  4.010848109290813 3.306446973933037 0  0.3077461147713075 3.119700563473354 0  4.6796875 4.6796875 0  2.333079012424948 3.845757959077508 0  0.7829771267899832 3.317744656243421 0  1.159100632608513 3.532487125138763 0  0.799066251840424 3.893573750162776 0  1.57326499580282 4.255438189102632 0  0.7309366047093668 0.2991402264438908 0  0.3054777494262156 1.223275888123843 0  4.027475154280377 2.78211326942427 0  2.35270874745988 4.426658168476266 0  3.474236283732569 2.021154281686229 0  4.401414236174444 2.329446628171927 0  3.39403781747337 3.987097102903034 0  1.077524329801934 1.214100792470484 0  4.065611571711903 1.066085524514197 0  2.165399002716117 3.335637450367864 0  3.007639563081306 1.093684039371638 0  4.030818285732145 4.351883315180857 0  3.504115222530889 1.739284194222036 0  1.224503368215566 4.712091441401919 0  3.805634204685714 1.321528442399996 0  4.319233123479386 1.573547993867769 0  1.024007670021325 4.394604704797005 0  3.776400432023095 3.839003324979723 0  2.991819819453308 4.320567175146181 0  0.9782797534072181 2.886406017887129 0  1.763835134082104 0.6602345487826022 0  3.765182288741625 1.631193038541544 0  2.267959593989681 2.345053543725764 0  4.412434895833333 4.168294270833333 0  4.4072265625 4.7255859375 0  2.791493971314009 3.11210833271929 0  3.408766223032414 3.469500900677365 0  1.915147569444444 4.725484476461039 0  2.070301968506271 0.2605666686358055 0  2.767932250651506 1.530295992695836 0  3.280065043173439 1.364863281105779 0  4.45101570110842 2.974157152713635 0  3.521928862999512 2.96990445010402 0  2.552921961347576 4.008414007169315 0  0.2682955376854191 3.657555015841003 0  3.084522868361304 2.310593316718068 0  2.669255823227708 1.939379494498064 0  2.615884629473921 2.238841231570381 0  1.405652091971449 0.8877813821442277 0  3.25151486618811 3.68536115104276 0  1.963741569810629 2.331207252264507 0  4.017297980292599 2.486269171379106 0  3.869168920841219 4.748188103831625 0  3.596868753579134 4.77342723825056 0  2.41262958240343 2.764128584995838 0  1.266750578673391 1.404747710001619 0  1.559243962241121 2.85146506328516 0  3.128799423834764 2.052081657715259 0  0.6770833333333333 0.9778025793650794 0  0.2083333333333333 0.78125 0  1.978224492765132 3.087074731032578 0  4.051448850909273 1.969392119104174 0  1.320577095006813 4.172234780971559 0  3.214261103850064 2.534397293281829 0  0.2635729089754111 1.779234736680035 0  3.510775680035133 4.460728640112889 0  2.603081405968802 0.2432579385496493 0  2.866341315154884 0.6662105505481998 0  3.000919221100777 0.2270278495648781 0  1.298858304121393 2.05917319923859 0  2.020292299736597 1.589794568392338 0  0.7401688396476035 4.470780315741533 0  0.6721783535561408 4.733125588707921 0  3.753712482075402 2.874301339727514 0  3.557348205914658 2.491958694539413 0  1.094565978195436 0.2011034254079851 0  0.9338148378011396 0.6833568465908735 0  2.945530578578538 3.701798332963805 0  3.111707186654356 3.216904195825605 0  1.341791111822685 3.293123262233967 0  1.632939924064587 1.184895891095613 0  0.6335477978936732 3.517393619499591 0  0.5576014611130192 3.210998966942492 0  1.564344196470102 0.3630498725895039 0  2.75362450242839 4.626680495816594 0  3.571304405229554 1.192452351107437 0  3.522934592621944 0.9359134489437148 0  4.453125 3.671875 0  4.765625 3.828125 0  1.055906321410838 4.14310472322957 0  4.795146539102229 0.46875 0  4.767156345199235 0.7178596932040019 0  0.2048534608977711 4.53125 0  0.232843654800765 4.282140306795998 0  0.5393715189906129 4.270810883024032 0  4.329922600274667 0.2750645887059072 0  4.275515096738972 0.5448389557295173 0  4.477747423652795 0.7252838358993123 0  0.2002829820452772 0.46875 0  0.4352678571428572 0.6956845238095237 0  0.5007241582667088 0.2123388122114133 0  4.672890923830735 0.2500902110494848 0  0.4308009280819452 4.783624996516437 0  2.104871305393774 4.438653689007242 0  0.2274454167838428 0.2274454167838428 0  3.446466574593436 0.4359605369011901 0  2.12354112127588 1.217588426759619 0  2.309175236825235 0.7888355970690434 0  2.556178570281936 1.054299163237582 0  0.578683248637
[...]
<PointData  Scalars="f_800-3"> 
<DataArray  type="Float64"  Name="f_800-3"  format="ascii">7.1702388194583438e-03  9.8215921483177718e-03  6.8686051727780782e-03  6.8518667300406797e-03  8.3510662051165929e-03  6.8656772026224593e-03  7.1239459283882773e-03  8.5997275074622525e-03  8.3373998688344494e-03  9.3408498446319755e-03  9.0967839320175575e-03  7.1070039834531563e-03  7.8504745662642920e-03  6.8657572151183685e-03  7.6071527088333720e-03  6.8700884791342565e-03  7.1147643216544938e-03  7.7281207112286860e-03  7.9792305723478119e-03  8.7248770611545352e-03  7.6082731653387909e-03  8.6990831747119166e-03  7.8423722937027585e-03  9.2476375834281369e-03  7.4060103342336982e-03  8.2854710977593986e-03  8.1914738086018204e-03  7.5100368367800605e-03  7.2524167975841630e-03  7.3390665975256800e-03  7.6113056856691452e-03  7.8379010909543183e-03  9.0489362046937329e-03  7.5119694576380094e-03  8.3223086405107352e-03  8.3764380226804200e-03  7.7724660557876241e-03  8.6724039129191192e-03  8.0147255460351220e-03  7.2394422476044868e-03  8.5671610970579036e-03  7.2964491956240074e-03  9.4690630245310315e-03  9.7176207574902352e-03  6.8707103286474759e-03  7.0824417302318438e-03  8.6683842981080551e-03  9.0301719704942822e-03  7.7201295252142853e-03  7.9727387597072451e-03  8.7206096615459611e-03  7.1524788835290671e-03  7.2348544024152988e-03  6.8618260181729481e-03  8.9694306243177820e-03  8.2249327385585259e-03  7.1198037476946927e-03  6.8671433955277911e-03  7.5292675139348288e-03  7.1199602150320458e-03  6.8663101811335600e-03  8.9537400068738643e-03  7.8624377510012489e-03  7.4729596710095469e-03  8.1973066318293784e-03  7.9415296649273590e-03  8.3723953268050322e-03  7.3953546416297977e-03  7.4493910483738532e-03  7.5829403479322046e-03  8.1298121160026902e-03  8.0507046075354773e-03  8.0553930861317260e-03  9.5175539457394206e-03  9.2372950810430034e-03  9.0049993114650201e-03  7.1462452299557210e-03  7.1724204640564743e-03  7.3997654369881965e-03  8.1634779127066244e-03  9.5155302979066398e-03  8.4696037232604299e-03  7.5990953307208233e-03  7.9190612678197141e-03  7.5858359177100954e-03  7.0722806140062298e-03  7.1385635187682988e-03  7.7438983997306886e-03  7.6642886663303147e-03  7.3816858753311190e-03  7.4191785470459027e-03  7.1194079244923190e-03  7.4771866152712188e-03  7.0571021989995417e-03  7.3150121513201908e-03  8.1073864457126346e-03  8.4132014730345945e-03  7.0561772681791597e-03  7.6263913564562462e-03  7.2995031110033521e-03  7.9464133212067307e-03  7.7513988407682359e-03  7.7369574622446367e-03  8.0893423904584739e-03  7.8646048135798032e-03  9.3086950797317877e-03  9.1553529135668266e-03  8.9121858770074662e-03  7.3548969710682732e-03  7.1179498663131785e-03  8.1538128991630720e-03  8.7838268859714401e-03  8.8842195175101359e-03  8.6284155610114877e-03  8.7652567384440740e-03  8.5125943232278560e-03  8.4198074533334676e-03  7.3879464862970480e-03  7.5808891556752639e-03  7.8302057330301798e-03  8.5400703979733872e-03  7.3048382425336140e-03  7.1092155291642579e-03  8.5242045013090573e-03  8.2855664527913351e-03  6.8619762913369204e-03  9.1752859111654799e-03  7.1226661576158133e-03  7.3460031530118760e-03  7.9264476322567327e-03  8.8416398452878953e-03  7.8279411556732049e-03  8.2318376088048231e-03  7.9867442949979172e-03  7.6400753566693109e-03  8.0554283473152771e-03  7.9711690771824568e-03  9.1779475513798121e-03  8.2285880421276904e-03  8.8729289535440913e-03  8.7599605025964686e-03  8.3408523340521776e-03  8.5340580841456251e-03  8.4360859394436195e-03  7.0532236187188738e-03  7.0809111713326465e-03  6.9948900929107808e-03  7.3085077288099955e-03  7.8500255706460808e-03  7.2449708985000425e-03  8.1259745207760466e-03  9.3901142780382658e-03  8.9094936093330780e-03  7.2787872764487728e-03  8.5418107106927654e-03  8.3490089372010926e-03  7.4331766451854837e-03  7.5190229211353852e-03  7.7894938486152308e-03  7.6345062003192170e-03  7.0423889263949062e-03  7.6569514058603154e-03  7.0539464027196165e-03  7.0494111378688806e-03  6.8685361115274823e-03  7.1764432028198427e-03  7.3427998334551128e-03  8.6070672273919849e-03  8.8558942158369035e-03  8.4720195521509958e-03  9.1359098396684036e-03  9.0555585196703311e-03  7.6386802355784215e-03  9.6557843018886882e-03  9.7514113592859393e-03  7.3171158162401292e-03  8.8905615351503337e-03  8.6459475455636352e-03  8.7295072903608856e-03  8.5317493859308740e-03  7.6864235690156206e-03  7.9144204919522603e-03  7.3089354092593633e-03  7.0479874400435662e-03  7.1251730034516975e-03  7.1179126064511433e-03  6.8669950746977930e-03  7.1190839359665534e-03  6.8626780774456216e-03  6.8631517136194201e-03  7.4207689920018092e-03  6.8689013040821529e-03  8.1603993310518826e-03  9.2823758798570855e-03  9.5259030688740302e-03  8.4111209592942996e-03  8.0375936405428765e-03  7.6499462284198693e-03  6.8681673879412040e-03  6.8708762797906964e-03  7.4541128459572658e-03  8.2283327079267256e-03  7.0376740073392150e-03  7.8001930391667683e-03  8.1122521223133542e-03  7.9854745226074046e-03  7.7706116895677746e-03  7.5585636194227916e-03  9.4057847744505371e-03  9.3558252497045070e-03  7.4456856078740788e-03  7.4619681553302246e-03  7.7729165056981261e-03  7.2167144296563608e-03  7.6855224201895734e-03  9.1881871393339320e-03  7.4145221308746919e-03  8.0997171893395677e-03  8.0468288928920266e-03  7.3881187771901741e-03  7.7523774467569834e-03  7.2950623938090875e-03  7.5719501394600408e-03  7.2648712430202350e-03  7.4864535578834015e-03  7.5746073972720422e-03  7.5143370407281251e-03  8.3691559968648212e-03  8.7910748149054082e-03  7.5949676061113783e-03  8.4763625378598446e-03  7.2051343146181451e-03  7.1609100756587409e-03  8.1415117057560132e-03  7.7965777311671484e-03  7.2770899264155472e-03  8.6050701643692971e-03  8.1941118492214957e-03  7.8850111557949385e-03  7.1910187787248758e-03  7.7424146644298969e-03  7.7014681235760924e-03  7.9065471744161793e-03  8.0057102049636460e-03  8.2521932664824920e-03  8.2792972244119488e-03  9.0040750285307856e-03  7.8319744385778097e-03  8.6391059382755486e-03  7.4490000664995878e-03  7.2543456437299736e-03  7.2452587749544601e-03  8.3664193851621365e-03  9.0776236222264699e-03  8.3887889563746491e-03  7.9804601827485021e-03  9.4661974070820113e-03  9.6094979218458495e-03  8.2472625306614419e-03  7.4260022299967934e-03  7.6047104586576403e-03  7.9277915573868572e-03  9.0258025911615792e-03  7.4284563518674631e-03  8.2884001306271857e-03  8.1293622743791125e-03  8.0486456226849627e-03  8.8566063806914744e-03  8.6360942916273060e-03  7.4217865520286681e-03  7.2674164833765407e-03  7.6077658055569604e-03  7.7264051722831430e-03  9.1891639015915048e-03  9.2795733779153702e-03  7.8761712140893447e-03  7.9723610491168276e-03  8.1278450879568951e-03  8.8680984025520104e-03  7.9938512008680459e-03  8.1752255459419214e-03  8.9099236099135885e-03  7.3368978051885844e-03  7.7106703598564920e-03  7.7408444637331901e-03  7.1920239930270006e-03  7.0078504694290195e-03  7.6231901167610611e-03  6.9840871869309767e-03  7.0036971614899201e-03  7.4271723059121482e-03  7.5308568602582351e-03  7.5412141177756695e-03  7.2621006324102393e-03  7.2926364632555753e-03  7.1726737535050648e-03  9.8735112286784041e-03  9.6398412982098662e-03  9.5437406577780215e-03  7.0582825554091162e-03  7.2764778524349299e-03  7.4525575855806762e-03  9.6614489727544009e-03  7.7813460935044886e-03  8.5767098111863838e-03  8.4657660407566442e-03  8.3199969289574349e-03  7.7236466102109137e-03  7.8789490629219642e-03  8.7410864363770407e-03  7.7707938252711030e-03  7.5371796607552263e-03  7.0133650359425490e-03  6.9977026823228126e-03  6.9994841163153691e-03  9.1289111048510410e-03  7.8318804779941506e-03  7.8302707506109539e-03  8.0110671326416166e-03  7.2464218604711894e-03  7.9980638672454678e-03  7.6412547117900263e-03  9.0413118128747083e-03  8.0919817659913032e-03  7.9834674097891169e-03  7.2533970726197617e-03  8.8161057788143718e-03  7.1886647660496794e-03  7.5647661218221033e-03  8.7353885487629311e-03  6.9970256127074599e-03  9.2481541359021036e-03  8.5673594738066641e-03  7.3711330130505036e-03  7.4464521285454765e-03  7.4691594549532916e-03  7.2176577331027648e-03  8.3545286105064440e-03  8.5064889356011256e-03  6.9592689922949712e-03  7.1571288352083075e-03  8.7736244189427944e-03  7.8805325928310646e-03  7.8621006390181686e-03  7.4831408450541578e-03  7.6958320569954549e-03  6.9607058608374657e-03  7.6351968211148718e-03  8.1586098865364404e-03  7.2446701787085904e-03  8.5158394683370019e-03  9.1804841532488746e-03  9.3572829413152547e-03  9.4023256060302464e-03  7.8646350290907316e-03  8.1322190448316137e-03  8.6907226919335119e-03  6.9590842628400934e-03  6.9597000285533620e-03  7.2102895544342962e-03  7.2791009292923880e-03  6.9487316435686251e-03  7.4803792755014226e-03  7.2962734102222700e-03  8.1817966609183217e-03  7.1725457180583365e-03  8.0133638035775976e-03  7.5768696383667396e-03  7.6304972913242130e-03  7.7948932671325858e-03  8.2165251197769684e-03  8.3254084317141066e-03  9.3722911333254597e-03  7.2841692335859094e-03  8.0409370507712168e-03  8.5625941670644211e-03  8.4144817946449676e-03  7.2119451905845464e-03  8.9788618186676990e-03  8.7755841983567142e-03  8.8968764911493102e-03  8.6656985218680638e-03  7.4880463467541227e-03  8.5029321739970003e-03  7.9741053057068197e-03  8.2245494922175439e-03  7.7456190738263873e-03  7.5733002605402134e-03  7.1254630640244327e-03  8.2561937292392890e-03  8.3404605085842711e-03  9.1157204510023942e-03  7.4400471896160130e-03  8.9963640461193511e-03  8.7964177257562753e-03  7.2556166678366934e-03  8.1067013785213818e-03  7.8870526152330974e-03  7.1099728484807813e-03  8.4358440068436277e-03  9.4768333593084949e-03  8.9103611601359985e-03  7.5091782498566137e-03  7.3119598640769409e-03  8.2295942571473744e-03  7.3323947419317191e-03  7.2622778019148741e-03  8.2420526281105425e-03  9.0814672949576288e-03  6.9534466676450446e-03  8.4223341368028851e-03  8.3688182923487061e-03  8.4490178887734954e-03  7.2306111290802375e-03  8.0457172463797976e-03  8.2455066015794318e-03  7.7045924585712917e-03  9.2774156998137649e-03  8.7834387420649696e-03  7.1107208159120030e-03  8.4520957916078727e-03  7.7736420830816508e-03  7.5938607645568562e-03  7.4300159143131719e-03  8.4633169695535592e-03  8.6304287884491244e-03  7.8709762414994559e-03  7.7278170270190854e-03  7.6560598608096230e-03  7.5177385973101861e-03  9.0020018808479648e-03  8.3033621267142692e-03  7.2112960788695262e-03  7.3583975069866688e-03  7.4124401740480088e-03  8.3344838144956742e-03  7.7060442520992777e-03  8.1693934654838759e-03  7.6324990553426810e-03  8.9574877408246188e-03  7.1342931372906891e-03  8.0207014747235850e-03  8.5601165761753709e-03  7.6714221028391259e-03  7.0726880087264065e-03  8.9555164568435233e-03  7.8906961918215768e-03  8.1655628318870761e-03  8.6879125591579776e-03  7.1423149331483731e-03  8.0874882212137456e-03  8.7899454655191653e-03  7.4259061487798378e-03  7.0474373721753436e-03  7.1759920795180423e-03  7.1181940809072943e-03  8.6388860178578299e-03  9.1952018344259572e-03  8.4353325744625247e-03  9.1344512446318860e-03  7.9767365321160594e-03  7.9550967746248123e-03  8.5693831026025583e-03  7.3286393702295506e-03  7.3638562762142964e-03  8.4558751080471700e-03  7.3907198288855917e-03  8.9342433405594657e-03  7.9610182999662153e-03  9.2880771051526562e-03  7.5298403335926833e-03  8.9113415481317411e-03  8.7748708780043920e-03  8.4492839011094424e-03  8.2398638621140538e-03  8.2408983409788458e-03  7.9601139995102224e-03  7.8620514736281195e-03  8.1453407616004919e-03  9.2934175826551672e-03  7.1312533644136344e-03  7.3365296467719481e-03  7.2357890524431794e-03  7.3798274914873884e-03  8.6608893513611639e-03  7.1198912532518402e-03  8.9332201407278048e-03  8.5407850252822368e-03  8.6425180272845618e-03  7.5393603975879749e-03  8.2944218427432569e-03  8.0899742727805687e-03  7.3405055644552375e-03  8.0281732527608136e-03  6.8613856516816308e-03  7.0684653413596449e-03  7.5616999759435489e-03  7.4822294203381271e-03  7.8152062321601313e-03  7.3114097782644386e-03  7.4728746152368181e-03  7.9184152752433488e-03  8.3802787160444092e-03  9.3758807247618509e-03  6.8669372692845209e-03  6.9674711427184727e-03  7.2196943853332224e-03  8.7116925808845436e-03  7.8988932997742563e-03  7.9520048499605624e-03  7.6871043838856179e-03  7.2171345294624071e-03  8.6523936557724532e-03  7.5831293477527052e-03  8.6616744493989237e-03  8.8347590128041754e-03  7.4832352583081765e-03  7.9437402559427005e-03  7.7233043260529158e-03  7.2028392544484067e-03  7.2092025943538470e-03  8.5043722824065908e-03  8.8585176791489573e-03  8.2510449007203151e-03  7.0989394282091152e-03  7.4593842442415743e-03  7.8416081922684493e-03  7.7423604569239199e-03  7.6677171744039593e-03  7.5656899120115622e-03  7.6639923148703933e-03  7.2931369525808792e-03  7.3307052414890508e-03  8.3828305640154359e-03  6.8654289208006690e-03  7.3547831535548773e-03  7.3796444330877812e-03  7.5000255030689810e-03  6.9592945431306528e-03  7.0995425376631669e-03  6.9731536754762376e-03  6.8655480777594403e-03  7.5315065681403996e-03  7.3236540145809074e-03  8.7756112192549432e-03  8.7570250033854238e-03  7.8798318356954177e-03  7.4089150264448032e-03  7.2154429664492365e-03  7.8274179621605922e-03  6.9546656799677536e-03  7.1295442126482313e-03  8.2276450968363692e-03  8.1475539819602320e-03  7.0912296614264242e-03  7.4762108923173733e-03  8.0174708704995393e-03  8.7405667535274314e-03  7.5070678789520831e-03  7.3601867078551793e-03  7.1591809478149726e-03  9.4479353967769960e-03  9.5606187139111870e-03  9.3126725975754884e-03  7.8790985082624505e-03  6.9569645042538899e-03  7.7362908281102009e-03  9.0620749583702944e-03  6.9599553561414821e-03  7.3494665007578447e-03  8.0288256308241497e-03  7.8102147769985759e-03  7.5545252351349153e-03  6.9509320962312608e-03  8.0573722463266918e-03  7.3479629527593848e-03  6.9644828638167301e-03  9.1001183755565398e-03  8.2906887280289332e-03  8.0621730433691943e-03  7.1520099100170226e-03  6.9555637803839438e-03  7.9818408995744917e-03  7.7563325846318892e-03  9.1526763126064965e-03  7.9604460763151204e-03  6.8703368309809918e-03  8.3098453004101583e-03  8.9019609763865554e-03  8.4676617964125640e-03  7.8707922449550837e-03  8.5690555933768328e-03  8.3205821637790667e-03  8.5416849748363045e-03  7.1566231731628018e-03  7.6042688944400619e-03  9.4675632300466276e-03  8.4728942154003520e-03  9.0315015190741959e-03  9.0924967215518012e-03  9.0193466887388569e-03  9.1957840488285213e-03  9.2005000605625640e-03  6.9581737821499678e-03  6.8626168729194375e-03  8.2960067991420718e-03  8.3410927701714089e-03  8.2256958899049396e-03  8.3796262581661528e-03  9.7374983798268547e-03  7.7107333741306726e-03  7.0853403885250783e-03  8.6277516999376004e-03  7.2255403257516790e-03  7.1612511186900192e-03  7.1192675922893420e-03  7.7460446373863621e-03  7.3160084782932450e-03  8.5448506643018909e-03  7.3836531237434534e-03  8.0969939115264188e-03  7.3850287700988311e-03  7.3110559083241775e-03  9.7462357727538095e-03  9.7582734583164729e-03  7.3477516741135580e-03  8.2543525812621456e-03  7.0826238338483616e-03  9.5791365086275049e-03  7.5962893583081366e-03  6.9479765244579170e-03  8.9717679341187618e-03  8.9875851545617655e-03  7.8248285222039995e-03  7.3989433710880551e-03  8.1631955284751905e-03  8.5597440154162700e-03  7.1135401736954736e-03  9.4525985935518982e-03  7.2036575997367382e-03  7.4200129836132049e-03  8.6631885929612309e-03  7.2890671990116507e-03  9.3998084508342128e-03  8.0791724541792106e-03  7.5334614289507724e-03  7.6539397634150987e-03  7.8849610231343324e-03  7.4602518294203859e-03  7.7870550425832323e-03  7.9401097088019346e-03  8.5845544262735472e-03  7.9306261964600007e-03  7.5101924959867826e-03  7.0519958123837516e-03  6.9522720823588444e-03  7.5713857196900878e-03  8.5987268118811345e-03  7.2110856397830008e-03  6.9552294195037705e-03  8.4425146340807652e-03  7.0492609398739537e-03  7.1245710316082417e-03  7.1042903708278858e-03  7.2501006354324599e-03  7.1630323619171071e-03  7.1301118504313987e-03  8.1308328862659974e-03  7.1344902221672007e-03  6.8672266905166488e-03  7.6986036091897863e-03  7.8811741087198451e-03  6.8645651869205645e-03  6.8664626756259851e-03  6.8666637992938128e-03  8.8768530182308496e-03  8.6917221734893572e-03  8.5059113849032773e-03  7.1204876051136554e-03  9.2486471521481609e-03  8.8162003370161959e-03  7.5133822488715083e-03  7.7551115341411778e-03  7.1662136727041817e-03  9.5616446674429718e-03  7.4392555656122928e-03  6.8686660171541347e-03  9.1895119267192162e-03  8.0670971970603252e-03  9.7821537834299980e-03  9.6181331412683833e-03  7.1148519028493657e-03  6.8656216183240019e-03  6.8610679829958603e-03  6.9288312545755463e-03  8.3184361255353358e-03  7.1206546485167842e-03  9.4339583385235019e-03  6.8696448437960559e-03  6.8736142306728117e-03  6.8675360665443009e-03  7.5775461457567878e-03  7.4732578370070874e-03  8.1491758689134480e-03  7.2118017894965449e-03  8.0838750136203990e-03  7.2308498224465433e-03  9.0885081615663943e-03  9.2148229286172483e-03  9.2355006046370390e-03  7.1627098504884416e-03  9.3292775368806168e-03  8.8900775477414318e-03  9.3848542524228220e-03  7.6876072407487195e-03  8.5816753947830695e-03  8.5595654710590580e-03  7.5991720981468227e-03  8.3208048153983593e-03  8.2341864002395317e-03  8.1507276629919651e-03  8.5054193895577213e-03  9.2656036430962246e-03  9.4375007027488380e-03  7.1464691525230592e-03  7.8359821118619746e-03  7.7761654370626584e-03  7.2492169040888786e-03  9.1013998212593535e-03  6.9648393945832571e-03  8.2607346641871207e-03  7.6526373689877383e-03  8.5667115011470608e-03  8.9529482762948712e-03  8.1586112496416126e-03  7.7162224115522272e-03  8.1120993310815313e-03  8.8216838261740583e-03  8.6979188319274061e-03  7.5521034948163122e-03  7.1012747286822771e-03  9.0009601513326778e-03  7.2685644456609751e-03  7.1987686805332447e-03  8.3368703804185852e-03  7.8300361429773976e-03  8.8091691945174615e-03  7.7689450441407520e-03  9.0512183318236499e-03  7.1603346264969801e-03  8.0825406767597117e-03  8.0317841100439619e-03  7.5510829233040970e-03  7.5417552478466753e-03  7.5044769624679547e-03  7.3819462312057346e-03  7.3971582284923310e-03  7.5254213135641061e-03  8.4159194554019844e-03  7.6475595864734071e-03  7.9590362886415907e-03  8.2865545176255655e-03  7.8579376139080968e-03  7.8074298846244131e-03  7.2863785389960011e-03  8.0664929253148592e-03  7.6661696412056784e-03  7.6159737035999169e-03  7.6169975667595832e-03  7.7171660681197496e-03  8.1940796534387215e-03  8.1557546857318336e-03  8.0287376138210471e-03  8.4771456795526660e-03  7.2557301257818166e-03  7.4000869267004075e-03  7.3852242285468430e-03  7.4544433535971991e-03  7.5124773603572979e-03  7.4008126215119024e-03  7.3464492013690808e-03  7.9529652295810913e-03  8.1025865969314940e-03  7.1691697044933981e-03  6.9776359474158153e-03  7.2371702664283328e-03  8.0376631942974345e-03  8.3781901313348481e-03  8.6494446899250781e-03  7.9154412348133654e-03  7.4502093873688082e-03  8.8311060165441515e-03  8.2517232210346011e-03  7.3102344305684798e-03  9.1236405610191692e-03  7.5804777561620049e-03  7.3830896524700162e-03  7.4202158604755927e-03  6.9645467876425574e-03  7.3205298976274629e-03  7.2262665229799799e-03  8.3687872817512395e-03  8.1154281485007144e-03  8.1767658040101769e-03  8.5435040084364169e-03  7.7098315058121165e-03  7.6361455166569217e-03  7.9061767727683935e-03  7.0857890033323382e-03  8.4220304231105991e-03  8.1610117703010809e-03  8.3741570065004843e-03  8.4574736643230862e-03  7.3818171761022410e-03  7.1954355183592436e-03  7.5033864163852621e-03  7.1966734597753131e-03  7.4906502458292890e-03  7.0953251122578727e-03  7.2213991573014513e-03  7.5759207216967387e-03  7.9703663127345618e-03  7.1149351361916649e-03  7.3572912002929864e-03  7.7200006049500712e-03  7.3548078930007043e-03  7.4460391475254240e-03  7.5197524937046546e-03  7.3290793413120017e-03  8.32448418970