<?xml version="1.0"?>
<VTKFile type="UnstructuredGrid"  version="0.1"  >
<UnstructuredGrid>
<Piece  NumberOfPoints="6486" NumberOfCells="12696">
<Points>
<DataArray  type="Float64"  NumberOfComponents="3"  format="ascii">0 2.5 0  0 0 0  2.5 0 0  2.5 2.5 0  1.25 0 0  2.5 1.25 0  1.25 2.5 0  0 1.25 0  1.25 1.25 0  0 0.625 0  0.625 0 0  0.625 2.5 0  0 1.875 0  2.5 0.625 0  1.875 0 0  2.5 1.875 0  1.875 2.5 0  1.770833333333333 0.7291666666666666 0  0.7291666666666666 1.770833333333333 0  0.9375 0.625 0  1.875 1.5625 0  0.642361111111111 1.163194444444444 0  1.341594827586207 1.883979885057471 0  0.46875 0.46875 0  2.03125 2.03125 0  0.3626104797979798 1.513178661616162 0  1.381740196078431 0.4564950980392157 0  0.9375 2.172619047619047 0  2.172619047619047 0.9375 0  2.096354166666667 0.4036458333333332 0  0.4036458333333333 2.096354166666667 0  1.684027777777778 1.163194444444444 0  0.3418803418803419 0.8693910256410255 0  1.642742622813391 2.162164207604464 0  1.275619849389031 0.8465650753054845 0  0.9136284722222221 1.434461805555556 0  1.732437511238546 0.3406962303960658 0  0.9714402568595876 1.029779313093998 0  1.52281746031746 1.485615079365079 0  2.1875 1.71875 0  1.06819722569879 0.2997236128493951 0  2.136114211309524 1.303478422619048 0  0.3125 0 0  0 0.3125 0  2.5 2.1875 0  2.1875 2.5 0  0.3200021620376328 1.192323085056694 0  0.6738456129277992 0.8304377375553881 0  1.757891808928991 1.861952730357003 0  1.5625 0 0  0.9375 0 0  0.3125 2.5 0  2.1875 0 0  2.5 0.9375 0  0 0.9375 0  0 1.5625 0  0.9375 2.5 0  2.5 0.3125 0  0 2.1875 0  1.5625 2.5 0  2.5 1.5625 0  0.7448220909826522 0.3003573636608841 0  1.027298850574712 1.871151477832512 0  1.331260495098891 2.197262878816185 0  1.207917681892289 1.582765010956622 0  0.4339993447432606 1.801186844743261 0  0.6337298768939392 1.443093039772727 0  2.049851190476191 0.6826636904761904 0  0.6584821428571428 2.219122023809524 0  1.89575676467455 0.9798457973793544 0  1.437570562095628 1.059380588255917 0  1.502090052505845 0.6987070896496241 0  0.2040860661083546 1.705323965099331 0  0.2083333333333333 0.46875 0  0.5070952039991439 0.2211150679997147 0  0.6916302856529919 0.5813591430410241 0  2.265625 1.953125 0  2.2265625 2.2265625 0  1.886424081252096 2.243391360417365 0  1.40625 0.202164758520858 0  0.2269345238095238 0.2269345238095238 0  1.152730869673694 0.5225850378741401 0  1.885631899587912 1.312095130148776 0  1.614808884009367 0.9049784971014416 0  1.890095442220658 0.5126535558463003 0  2.323168682795699 0.46875 0  2.268811725689575 0.2304742875213018 0  0.6002389442105756 1.967426444210576 0  0.1768313172043011 2.03125 0  0.2311882743104251 2.269525712478698 0  2.03125 0.176831317204301 0  2.280262553344767 0.6954945504579233 0  1.979219539285994 1.809922269642997 0  2.336309523809524 1.09375 0  1.09375 2.336309523809524 0  0.9314042474388009 1.662973812215543 0  0.1634067999087722 1.40625 0  2.337090640094896 1.40625 0  1.141616997467638 2.069311773587991 0  0.46875 2.338939559681489 0  1.542440307908715 1.734944797244472 0  1.556713687786879 1.956977865354753 0  0.8264238995344066 1.975424467820646 0  1.466326331454725 1.275271369760862 0  1.655675324257095 0.5444159974393489 0  0.3385416666666666 0.6479255698005697 0  0 0.78125 0  0.5236073939200119 0.984090461540625 0  2.091665741047893 1.519793517904215 0  1.71875 2.5 0  0.5356538886262603 1.623137930505009 0  0 1.09375 0  0.1932884281517095 1.015625 0  0.8569313582417669 1.2198915584249 0  0.8876981284879677 0.8329884081524883 0  1.115618488474214 0.7219586973356271 0  1.186950366204949 1.043465130075318 0  2.057459118787237 1.110823087309335 0  1.830651283878689 2.049810069572418 0  1.689107969301489 1.367247437031697 0  0.4921048768039656 1.298643370653124 0  0.8213975694444444 2.336309523809524 0  2.03125 2.5 0  1.049729400480002 1.283723261332814 0  1.308101375801673 0.6489479469700392 0  2.5 2.34375 0  0.4968777175037714 0.7562964879736076 0  1.40625 2.5 0  1.501347663534097 2.307027627307738 0  1.602813712048603 0.1926218191360736 0  0.8393082906308107 0.463778306132633 0  1.682663349152719 1.598471865581041 0  0.7774174680851571 1.560004941327907 0  1.554204170364662 0.3898593897892066 0  1.842184459051087 0.186443880058197 0  1.358107417651776 1.696381759610015 0  1.18859291992392 1.77598670078022 0  0.1875331222687418 0.7609599743339348 0  1.339536743965101 1.422080365801479 0  0.7788179348750389 0.9955343414928611 0  0.9062978492805438 0.1919636509126373 0  1.256007360640958 0.3160320559396114 0  1.09375 0 0  1.174986727221844 0.1594990293443933 0  2.34375 1.796875 0  2.318026474511116 1.589177949022232 0  2.34375 2.5 0  1.672742954892153 2.332882724550692 0  0.2683637361947215 1.874801596909639 0  2.174770749820102 0.5581009131310781 0  1.443279522965991 0.8870068372898454 0  0.3385416666666667 0.3571428571428572 0  0.78125 0 0  2.060421048269335 2.314363248763811 0  1.088078737088509 0.8967352118723447 0  1.087825368444708 1.454931510884769 0  2.018308232129541 0.8548495425854904 0  1.943987311736842 0.3246298523011434 0  1.71875 0 0  1.85337849796276 1.144833312386208 0  2.3486328125 2.1044921875 0  1.407588788651747 2.042968789119587 0  2.336309523809524 0.865366648092144 0  2.34375 0 0  2.5 0.15625 0  0.15625 2.5 0  0 2.34375 0  0.1638044648294291 1.242263417405867 0  0.356216654757926 1.032569427322806 0  0.3188217956111817 1.355736727000647 0  0.5924956460852111 0.36112522004736 0  0.6594216488965849 0.1603472116132387 0  1.841804599497131 1.72214349266521 0  0.15625 0 0  0 0.15625 0  2.115898634821499 1.894570904464496 0  0.7821877980253907 0.7129993435924866 0  1.003820447087786 0.4516053462784233 0  0.477562948779147 1.138333049293613 0  0.719493678605015 1.305655360135975 0  0.9772457618587566 2.020350128938537 0  0.8764738248887107 1.826219722709673 0  1.254787875123819 2.339010653832026 0  2.343597354852534 1.249982759769001 0  0.78125 2.5 0  0.46875 2.5 0  2.5 1.40625 0  1.09375 2.5 0  2.5 0.78125 0  2.5 1.09375 0  2.03125 0 0  2.5 0.46875 0  1.40625 0 0  0.46875 0 0  0 0.46875 0  0 1.40625 0  0 1.71875 0  0 2.03125 0  2.5 1.71875 0  2.5 2.03125 0  2.005424054645407 1.653223486966518 0  0.1538730573856537 1.559850281736677 0  2.33984375 2.33984375 0  1.166539506212474 1.922878979538754 0  0.3914885633949916 1.65887232812171 0  0.5795503163042564 1.766243562569382 0  0.399533125920212 1.946786875081388 0  0.7866324979014098 2.127719094551316 0  0.3654683023546834 0.1495701132219454 0  0.1527388747131078 0.6116379440619215 0  2.013737577140188 1.391056634712135 0  1.17635437372994 2.213329084238133 0  1.737118141866284 1.010577140843115 0  2.200707118087222 1.164723314085963 0  1.697018908736685 1.993548551451517 0  0.5387621649009668 0.6070503962352419 0  2.032805785855952 0.5330427622570983 0  1.082699501358059 1.667818725183932 0  1.503819781540653 0.5468420196858188 0  2.015409142866072 2.175941657590429 0  1.752057611265444 0.869642097111018 0  0.612251684107783 2.356045720700959 0  1.902817102342857 0.6607642211999982 0  2.159616561739693 0.7867739969338844 0  0.5120038350106624 2.197302352398502 0  1.888200216011548 1.919501662489862 0  1.495909909726654 2.16028358757309 0  0.489139876703609 1.443203008943564 0  0.8819175670410521 0.3301172743913011 0  1.882591144370812 0.8155965192707721 0  1.133979796994841 1.172526771862882 0  2.206217447916667 2.084147135416667 0  2.20361328125 2.36279296875 0  1.395746985657004 1.556054166359645 0  1.704383111516207 1.734750450338683 0  0.9575737847222222 2.36274223823052 0  1.035150984253136 0.1302833343179028 0  1.383966125325753 0.7651479963479179 0  1.64003252158672 0.6824316405528895 0  2.22550785055421 1.487078576356817 0  1.760964431499756 1.48495222505201 0  1.276460980673788 2.004207003584658 0  0.1341477688427096 1.828777507920502 0  1.542261434180652 1.155296658359034 0  1.334627911613854 0.9696897472490321 0  1.30794231473696 1.119420615785191 0  0.7028260459857245 0.4438906910721139 0  1.625757433094055 1.84268057552138 0  0.9818707849053143 1.165603626132254 0  2.0086489901463 1.243134585689553 0  1.934584460420609 2.374094051915812 0  1.798434376789567 2.38671361912528 0  1.206314791201715 1.382064292497919 0  0.6333752893366955 0.7023738550008095 0  0.7796219811205605 1.42573253164258 0  1.564399711917382 1.026040828857629 0  0.3385416666666666 0.4889012896825397 0  0.1041666666666667 0.390625 0  0.989112246382566 1.543537365516289 0  2.025724425454636 0.9846960595520872 0  0.6602885475034063 2.086117390485779 0  1.607130551925032 1.267198646640915 0  0.1317864544877056 0.8896173683400176 0  1.755387840017567 2.230364320056445 0  1.301540702984401 0.1216289692748247 0  1.433170657577442 0.3331052752740999 0  1.500459610550388 0.113513924782439 0  0.6494291520606965 1.029586599619295 0  1.010146149868299 0.794897284196169 0  0.3700844198238017 2.235390157870766 0  0.3360891767780704 2.36656279435396 0  1.876856241037701 1.437150669863757 0  1.778674102957329 1.245979347269706 0  0.5472829890977179 0.1005517127039925 0  0.4669074189005698 0.3416784232954367 0  1.472765289289269 1.850899166481903 0  1.555853593327178 1.608452097912802 0  0.6708955559113426 1.646561631116984 0  0.8164699620322933 0.5924479455478063 0  0.3167738989468366 1.758696809749795 0  0.2788007305565096 1.605499483471246 0  0.7821720982350511 0.181524936294752 0  1.376812251214195 2.313340247908297 0  1.785652202614777 0.5962261755537186 0  1.761467296310972 0.4679567244718574 0  2.2265625 1.8359375 0  2.3828125 1.9140625 0  0.5279531607054191 2.071552361614785 0  2.397573269551114 0.234375 0  2.383578172599618 0.3589298466020009 0  0.1024267304488855 2.265625 0  0.1164218274003825 2.141070153397999 0  0.2696857594953064 2.135405441512016 0  2.164961300137334 0.1375322943529536 0  2.137757548369486 0.2724194778647587 0  2.238873711826398 0.3626419179496562 0  0.1001414910226386 0.234375 0  0.2176339285714286 0.3478422619047619 0  0.2503620791333544 0.1061694061057066 0  2.336445461915368 0.1250451055247424 0  0.2154004640409726 2.3918124
[...]
<PointData  Scalars="f_49-3"> 
<DataArray  type="Float64"  Name="f_49-3"  format="ascii">-9.9995910994912611e-05  2.9545746979182688e-09  1.2499244496913592e-09  3.9679172252095747e-04  2.1085311078599185e-09  1.2996761261107077e-09  -9.4286215463065546e-05  -9.9995028865781639e-05  2.3210336505746396e-04  -1.0069426006166180e-04  2.5578794594233773e-09  -9.9995879666902804e-05  -9.9995499046557070e-05  1.2354947862646567e-09  1.6392222061826169e-09  1.2280978848999519e-06  8.0359216027178066e-04  1.7880870736787385e-09  -8.9579149267197510e-05  1.2444572810127158e-08  1.7867680865199524e-05  1.4950579252662425e-03  1.1667005056103107e-03  3.3619766001963254e-08  3.9165374488504600e-04  -9.9977361531633578e-05  2.0555496274287779e-09  -9.7654060106786190e-05  1.5049957630312828e-09  1.5034187948585328e-09  -9.9995620846243062e-05  1.6493726683140471e-07  1.4532961329525378e-03  1.0984474745131013e-03  1.5179553620245184e-08  1.4379486642537699e-03  1.7546515594392084e-09  2.6386681554968613e-04  2.2305742103457610e-04  4.0210398895466449e-06  2.2605907865492204e-09  4.1817508585712089e-09  2.7375238832576819e-09  6.5740978969191314e-07  5.7932822619084152e-05  1.0471442797547403e-03  -8.6637892994967269e-05  5.8383870888601655e-04  6.0173690499814257e-04  1.8543881263749906e-09  2.3311522512807660e-09  -9.9995912248788791e-05  1.4085485709173329e-09  1.2487942542393466e-09  -9.9976156833559695e-05  -9.9995265810128622e-05  -9.9982395569144205e-05  1.2261827778469150e-09  -9.9995701264063970e-05  6.9975957946870693e-05  5.7488231285681753e-09  2.4725120648338576e-09  8.7684143291521439e-05  1.1067653904874861e-04  1.5234917188601106e-03  -9.9993776070523711e-05  4.9413954529124114e-05  1.5569015193579836e-09  -9.9995007193386844e-05  1.7212817741631501e-09  7.5021310506070826e-07  1.9786711337830088e-09  -9.9995351963671580e-05  1.5474966629515336e-04  2.6209627807735594e-09  4.4475532551349382e-07  3.3160500934587330e-05  3.9947531866336717e-04  1.1612684370380473e-03  1.9994556726933757e-09  3.2925788492230775e-09  2.2164747534301014e-09  1.6524420921120961e-07  2.1619754672363675e-09  1.6567199801742834e-09  1.3451068327767008e-09  1.3775537946171716e-09  -9.9978176754893095e-05  -9.9995597295064422e-05  -9.9995754711378334e-05  1.5437782409754943e-09  1.3899584255954641e-09  1.1069116647579832e-04  1.3917433324910856e-09  -9.6126805784142827e-05  3.6564139979074884e-04  -9.9994968531554387e-05  2.8072075861269916e-09  -4.9193484834812090e-07  -9.9995788740806358e-05  9.2821569034159273e-04  1.3255970054584366e-03  -9.6288783132131379e-05  3.1169077002387444e-05  1.8621430738928954e-09  2.3208424206918807e-03  -9.9857324759857925e-05  2.0705787112848132e-03  4.0824399369005078e-07  3.9839040339400438e-04  -9.8284093439420883e-05  -9.9994865532564123e-05  -9.8703770848257872e-05  1.8191412393639536e-03  2.6275291654073117e-05  6.1600716882471820e-09  3.0532688193024064e-05  1.6448652945377022e-09  9.3952557270020971e-04  7.7644829965606872e-06  -6.4467876875019650e-06  -9.9985495206346103e-05  1.0930885806216015e-03  1.1497539251655812e-03  2.1075313989877862e-09  1.8402223720898663e-04  1.5329865835381977e-03  -6.3346673940447001e-05  2.4857399132702609e-04  1.8396904791590637e-09  2.4197815220686867e-09  1.7156065080299517e-04  1.3246298691043041e-04  1.9171519474848845e-09  1.6587465241767069e-09  1.4018187619574123e-03  1.0136517455670820e-03  5.9222316934297563e-04  4.6408023168282789e-04  1.1054718180999925e-03  2.3623747513493998e-09  2.1343457794036119e-09  2.2243070382104901e-09  2.1927774621868135e-09  2.0596343408593837e-06  8.5173174754590233e-08  7.0125866318944364e-04  7.1455274891003536e-04  -9.9995468929597227e-05  1.4477875218946919e-09  5.2187883644924316e-09  4.3435263772594540e-08  2.4345342524649295e-09  9.9923008816968947e-04  3.8414138294667874e-06  1.5848476443487442e-03  1.6157966271017583e-09  1.6025713915917023e-09  1.7512301614620439e-09  5.7155755330290498e-09  8.3055242742233510e-05  7.8874753375136018e-04  1.3582177432599711e-09  1.3374488144413741e-09  1.2434052511619320e-09  -9.9995914581298736e-05  -9.9995834238913038e-05  -9.9988637818730332e-05  1.7331221240197547e-04  -9.9726263327984215e-05  2.7839394923164008e-09  2.5299475430063418e-09  1.4719063314227903e-04  2.8570828749696316e-09  1.3427699056832812e-08  7.7105313933958325e-05  7.2094960585768414e-06  2.3197654717434986e-09  4.3333986870300643e-04  1.0821319367735600e-03  -7.8152205385333029e-05  -4.7358838851441430e-05  -6.9338872422042614e-05  1.4283148528311413e-09  -9.9995572721130633e-05  -9.9995904040559014e-05  1.3936126612118462e-09  -9.9513239098429445e-05  1.2524088908783147e-09  1.2745172050226099e-09  1.5422090788978402e-09  1.2295280923493327e-09  1.9478372891525265e-09  2.6519896846589363e-09  -2.5233453042660797e-05  -9.9995146854804759e-05  -9.9995369394287613e-05  -9.9995590015721902e-05  8.1049262699382608e-08  1.0218009023141561e-05  1.0886993833240679e-05  -9.9995245079225666e-05  4.0674892790252377e-04  3.4592337578896287e-04  -9.9993127157478465e-05  -9.9588771303612717e-05  -9.9995504988218716e-05  -9.9809359761905805e-05  2.7041799827067570e-09  3.0621977378546940e-03  1.3674770511549629e-07  -6.0679807396223629e-05  2.5516565948084288e-09  1.5085631562485368e-09  1.1501695044006533e-03  5.3305045506329864e-05  1.5614892751094485e-09  1.0442160517892018e-03  1.9679288676407369e-09  7.9359624547796135e-04  1.8132982262835963e-09  -9.9995785175694150e-05  1.6714043296765586e-09  1.4893946717365727e-09  -9.9995682646496413e-05  4.3775216127985153e-04  6.7516256887456289e-04  -8.8841728616513165e-05  2.3801533107330305e-09  1.6982014604882939e-09  2.9311695904908760e-04  1.9966324653833569e-04  7.5608615830027458e-04  7.8582077518016963e-04  4.2289425452936638e-04  -9.9802361068598229e-05  2.2807576599822469e-09  2.1425763002743534e-09  1.8756658462995624e-09  4.7983957541139258e-08  2.3232948810100051e-05  4.3060938070403761e-04  -9.9995434689614416e-05  1.1645483682261605e-06  2.3829107193101091e-07  2.0198493959517724e-05  3.6261778436894157e-09  9.8319935778974871e-04  9.2518070849782730e-04  9.5422560162975186e-09  1.1324840848647778e-03  8.8834990004215027e-04  8.6482621260292481e-04  1.1097177211496724e-04  6.7328252435425986e-04  2.2351333268743824e-08  2.0277788162146838e-05  -4.2478330296672353e-05  1.2093052320058687e-03  1.6072748548642210e-09  -9.9982970062959382e-05  4.9993493470288255e-06  -9.7878097150330058e-05  1.1313190110277128e-03  2.0737590369669784e-09  2.0060878850310363e-09  1.9079789016065174e-09  2.1313595320755813e-03  1.5824093636781192e-06  -9.9995723427878576e-05  -9.9995818242298252e-05  1.9923348566215898e-06  2.4424148651709145e-07  2.5958393652793980e-09  2.8887567641787439e-09  1.3734569222449129e-03  4.1729981937739638e-04  -8.1936467418956916e-05  4.2011661577703800e-08  -9.9995359406757360e-05  -9.9995170222479200e-05  2.4515512928417348e-09  2.9777261497547475e-05  1.7665808946578205e-09  1.7535090256817589e-09  1.2556624991132732e-05  6.0326572591529326e-06  -9.9995460334380444e-05  1.2757391755890148e-09  1.3077365142428708e-09  -9.9995758307593104e-05  -9.9995657794558075e-05  -9.9995659619424613e-05  1.4505223977176046e-09  1.4764666032562359e-09  1.4194059298656070e-09  -3.4134494217144888e-08  1.1681896197289905e-06  2.7979032055068071e-09  1.3184509877687477e-09  -9.9995841781301423e-05  -9.2489406551905464e-05  2.7898567319763593e-09  1.7622899601927233e-09  2.5302663560128750e-09  2.1973774963479862e-09  2.1200927810852186e-09  -9.9995547959232263e-05  7.0849162610219356e-05  1.9456155995240432e-03  -9.9995533755301331e-05  1.6033320904315156e-09  1.3238570607639749e-09  1.3177664274040058e-09  1.7141112962349919e-04  -1.8882158642969499e-08  -9.8877119225339408e-05  -9.9991773522684733e-05  1.9930799737676174e-09  4.6034439418972602e-07  5.0860070559214129e-05  1.6815967609495683e-09  2.5346691125528779e-03  -4.5998189965753262e-06  2.0626170194505344e-04  1.4717575598744968e-09  2.3966134409066761e-09  1.4828448734067599e-09  7.4727695520152029e-05  -9.9639023859535400e-05  1.3388314080874944e-09  -6.6134015016554854e-05  5.3086041734738991e-04  1.7154027820459663e-05  2.3821769248407541e-04  1.5900821614196064e-09  -9.5131029791580818e-05  -9.9989825686103102e-05  -9.9995016541921540e-05  4.1610267681387021e-09  2.1098256727643502e-09  1.0111205784312076e-03  1.8095005369644905e-09  1.8724105424810828e-09  9.5646328244511120e-04  1.6970955042489760e-09  5.5555020240767107e-08  1.2456778635629279e-03  1.0387838661926947e-05  -9.9995626415199884e-05  1.7545025594752274e-03  2.8851841890000190e-03  1.8960610732544333e-04  2.3631817519976293e-03  1.8416955884000070e-09  -9.9995316479001880e-05  -9.9993391854996479e-05  1.3802658102410365e-09  1.3372852417532165e-09  -6.7640412769482937e-05  -9.9995860512161995e-05  3.9723266736996427e-04  3.4003939927841686e-06  3.8650649590612904e-08  2.0442589180413379e-09  1.0692134207873790e-03  1.9212355787043734e-09  1.2147956811084800e-03  -9.6704609166948412e-05  -7.0149368028099121e-05  1.7796660011670879e-04  -9.9995192449041113e-05  3.0271338177888339e-09  4.7342395650195278e-04  9.4386031511376519e-04  2.5502037858011849e-04  1.7789092381445526e-06  3.8253944196423637e-05  1.9325022976794562e-03  1.4272104883670575e-06  1.1272089888343198e-04  4.4328675163458663e-05  1.6348751923544275e-09  1.5329351527643205e-03  5.4400829808831782e-04  1.5037947736360393e-03  2.5739330281947576e-05  -8.5419804997985632e-05  1.4205405880707186e-09  6.5106409901576089e-04  2.1297545564057055e-09  2.5487979284398296e-09  -9.9862470150653123e-05  6.3871863725338632e-05  2.6541816436357772e-04  1.2624379103566354e-04  1.9895666808313970e-04  1.8300259769048872e-09  7.6439242530430229e-07  1.6880131938925751e-03  3.5433224167379334e-03  -9.9958368668662148e-05  1.7282824736527806e-09  1.5571575732554555e-09  1.0638701298907854e-03  1.8731938268391110e-09  2.8985927984551737e-04  -7.7874915559368181e-05  1.7417129843101601e-03  1.2899383634989084e-09  2.2243716221811318e-09  4.2805819237473432e-09  9.5381786471075433e-08  1.4374005895078331e-09  -9.9914569281978009e-05  -9.9043329709026649e-05  1.4683195210800846e-06  7.9954390368768447e-04  1.5113205184639090e-03  -9.9995899284119265e-05  5.6229011783893242e-04  1.1921636005322470e-03  2.5766646750633983e-04  6.9484874292966372e-04  3.6426201709213534e-05  -4.1672835630965347e-05  -9.9775374897417864e-05  1.5567628843068040e-04  8.1672594185567193e-04  6.0044468203991922e-04  2.4874679442785192e-09  1.3735426657632704e-03  -9.9985238799285995e-05  -9.9993959734024488e-05  1.5374377625432795e-09  2.1248000694820022e-09  -9.9742410602780775e-05  1.9913054932519888e-09  1.0407328795653602e-03  2.4707808916967890e-09  1.3879368181015644e-09  -9.9995378166032079e-05  5.3478251803367652e-05  1.6945997635343274e-09  7.1396315345270873e-04  9.7952287476427884e-04  4.5995437322908587e-04  2.0369063098964383e-09  2.3274624980242743e-09  1.3707525230158051e-09  1.3676864146822153e-03  -9.9974557832030963e-05  2.6186532242121854e-04  2.5822967444637009e-05  1.4370569483166962e-09  -9.9904206225522334e-05  3.0156473114203517e-08  2.5110731120041039e-03  1.2299461733347487e-03  -1.0383583286678349e-04  1.3146509399955290e-03  1.9190988991562044e-09  -9.9794486473535338e-05  1.4720802993591865e-09  1.5167239370444281e-09  -9.2721358207648041e-05  -9.9533795907140471e-05  1.5239872325817877e-03  1.9137456763217782e-09  3.4818469799729633e-03  1.5931511576798628e-09  2.4695200728335230e-09  3.3102552023323799e-09  2.1959485310726997e-09  2.0754692138420435e-09  2.0678791067337149e-09  1.3378427808393434e-03  8.9536936368529176e-04  1.3772285233533074e-03  2.6489804125179631e-09  -9.9995905671854915e-05  1.0988230110208174e-03  7.0698173445245900e-04  -9.9995743722863236e-05  6.2993681360895288e-04  1.8456610515608945e-04  1.4328980664311755e-08  2.2469209215496103e-09  1.6615380054474007e-03  -9.9995438193934433e-05  4.4034565859225645e-05  1.9855599572651549e-09  4.6026871155567572e-06  4.5653899302913996e-09  1.2500287190697868e-09  1.5126391193806354e-08  1.5385023250162018e-08  1.1778264001834910e-03  -9.9995496431561393e-05  3.0803077036192783e-04  1.5967578570931996e-09  1.2053546142766399e-07  7.7459402859668278e-05  2.6805777251039091e-09  1.2279026710336190e-09  1.2928850196834663e-09  -9.9425095821693019e-05  2.3316749441495914e-09  -9.9995385388583358e-05  -9.9995412341366571e-05  1.8031644429137381e-09  1.1249960156954771e-03  2.3057434502676792e-09  3.4293184769668557e-04  2.4657517863032612e-09  9.5689357960824367e-04  2.1240930704240828e-09  -9.9995427432299767e-05  -9.9995414575353533e-05  -9.9995849789787496e-05  -9.9995836071834520e-05  2.2304085483217803e-09  2.4180437154353333e-09  6.0267892824853231e-05  1.3824235250269290e-09  -9.9984428845257425e-05  -9.0985466074469665e-05  9.3305629835552911e-09  2.0687385937117478e-09  4.0991526716989937e-05  -9.9995591020039652e-05  2.1682540478494998e-05  1.5115959788940408e-09  2.1376878729521631e-09  1.2444244718413843e-09  1.5707712126515754e-09  1.5614062686769534e-09  1.6564880990371158e-09  1.4487988328197123e-06  1.0046416614138316e-05  2.6381889084162066e-07  1.2503347936088455e-09  -6.6792367758223919e-05  1.4860968430125554e-09  -7.1857798487850506e-05  7.7159594033164873e-05  3.0670365492970738e-09  8.9544910091267349e-04  5.9965974136374372e-04  9.0549209785654510e-07  7.1409634800682675e-05  2.0143808208625136e-04  1.9213245834289681e-08  4.4826336418270688e-08  1.3515107605149109e-09  -9.9995694229202398e-05  4.9449450939940764e-05  2.3635531676876931e-09  5.2549337275946939e-05  -9.8507721603534139e-05  1.3837951146988241e-09  -6.7407354839291651e-09  2.5009122889384856e-06  1.1927079229296579e-08  3.9176595981799703e-04  1.2780950775941447e-09  6.0146044100858365e-05  -9.9996598376586408e-05  1.2951118344919396e-09  -9.9995797036047467e-05  1.9198800989838548e-09  1.8271552804855529e-09  5.5789414082591166e-04  2.1963716939077526e-04  5.0704027012834271e-04  1.1140060236046138e-03  2.5754110126022265e-05  6.2515389805575133e-04  -9.2767445484698516e-05  1.4667093224209828e-03  1.5173199131033284e-09  1.3016437156429536e-09  -6.4664381138112380e-05  1.0000088631533584e-03  2.5742742609454525e-09  1.9272276599970305e-09  3.5072359258380364e-06  3.6259308990616555e-04  -1.3574301653193918e-07  3.2958838020633892e-04  7.0679192640410373e-04  -9.5067274899078276e-05  6.9345002418048361e-06  2.2581964414759154e-09  7.9712549039507197e-09  1.7106914407017087e-09  2.5040069921687608e-09  -9.9990042881712798e-05  2.5893871196207264e-09  2.5579937603767179e-09  2.5044022628190844e-09  1.0829307765674883e-08  2.6130923480823121e-09  1.3279536902809788e-09  1.2643754871802355e-09  9.2334491835786294e-04  1.5758471958823416e-03  2.2321387400390958e-06  -9.9835783329308721e-05  -2.7268549311635400e-07  3.7146831565385713e-04  1.4365737601086886e-09  2.2959520011239535e-09  4.3303209185200170e-05  1.4011526952208979e-09  9.9918696154322584e-05  8.9161344959197712e-04  7.7534241241574960e-04  6.2597214400214880e-07  6.4279558921892166e-05  2.0868158592243951e-09  -1.5675166041720451e-05  -8.7720102860591728e-05  2.8904514975125001e-09  3.1103826005414002e-09  1.9440468707366680e-04  2.0380693461976058e-09  3.2225925904098596e-04  3.3598412028927948e-09  -9.9995658211367633e-05  1.2681503698618147e-09  7.6998562851032062e-06  8.9268145157311030e-05  1.9688379949855957e-09  3.0555485598640561e-06  2.8188605540971020e-04  2.2636111064189813e-09  9.7737477421511935e-04  2.7392255044585300e-09  1.3946006711268096e-09  1.5395643656438531e-09  2.3069369816091650e-09  1.5466107878120627e-09  7.4315298954295784e-04  -9.9995324652038021e-05  -9.9369976555460998e-05  -9.9101012201136340e-05  1.7449049092365335e-06  6.4065480668836535e-04  1.7514697062756909e-09  2.3135652703715052e-04  1.3362007571403980e-03  1.4000672198298170e-03  9.0016233476685316e-07  1.5578207865091397e-09  1.3578633256155336e-09  -9.9995654262066786e-05  -9.9994525835710510e-05  -3.3823347188291278e-05  9.6041861784688817e-09  2.1534127054861219e-09  8.9966722889009800e-04  -9.9993764359300778e-05  1.1050602392327009e-03  -9.9995868359291706e-05  -9.9995909804363202e-05  -8.4405326429668915e-05  -9.9995317609541539e-05  -9.9995859918047556e-05  2.3314550137095448e-08  1.6817211022427267e-09  1.7987528818668236e-09  1.2851029388064004e-09  1.3152551034652049e-09  1.9973423507814789e-09  -9.9994529248951310e-05  -9.9994969943696980e-05  -9.9995095425669855e-05  -9.7977960739976263e-05  -9.8489620329477237e-05  2.3805492487371452e-09  1.5921036105495162e-09  -9.9995539925510897e-05  -9.9995917332182906e-05  2.8060006142495031e-09  -9.9995779246302299e-05  1.2314371088736412e-09  2.6126269523380576e-09  1.9109784121910295e-09  -8.9137492694447463e-09  4.1551624132993495e-06  6.3989016793829625e-04  1.0941315040937817e-04  2.9262682233048169e-04  5.3504384446786382e-04  -9.9995217707040676e-05  -1.9073522930633425e-05  -4.6896106472553558e-05  2.8681863822795171e-07  2.4823594346013261e-05  1.2265862586219250e-09  1.6907889076031451e-09  -9.2140457059637243e-07  8.9352208319829754e-04  -9.9994179721855784e-05  1.9937818682086357e-09  -8.6904403172208977e-05  -3.3188389287739105e-07  4.5218732502185134e-04  5.6298634682944847e-06  3.3879873086450445e-06  2.6631641829860560e-09  4.6034123270676381e-04  3.7793104766165015e-04  -9.9995565072367798e-05  1.6944225086171633e-03  2.2593118574278138e-09  -9.3101629616001224e-05  -9.9995105484986828e-05  -9.9995258475491587e-05  -9.9995276500807202e-05  -9.9993540473091835e-05  1.0422605309378732e-03  4.4679673230551536e-03  1.4625415098802130e-09  1.2707997438795179e-03  -3.2187584628427729e-05  1.7583777819082543e-09  6.1537734619856207e-04  1.8783256355135375e-09  -9.9995234100476275e-05  -4.6550842142051657e-05  5.3817778929688906e-04  6.6223517358460823e-04  5.0089398532138837e-04  -9.0241270664495217e-05  2.0075219229311381e-09  1.8869957298696238e-03  1.2802715444404605e-03  1.6279279342990325e-09  1.4062307485438470e-09  2.3556646833509378e-03  1.5078431359320616e-09  1.4394292960763960e-09  7.9192879959038719e-04  1.2615069444706038e-08  3.8807063545109299e-08  1.1468768224938382e-06  7.3430420436857988e-08  3.9953152567872205e-07  -9.7725223694191538e-05  -9.5701761039764652e-05  1.0229387205528489e-03  3.1418997358993975e-07  5.8885634000278030e-08  1.8305770131638793e-07  2.2224347463203771e-08  -9.9987795829943452e-05  -9.9995140045824418e-05  1.6117555157133434e-04  -9.9952232051881055e-05  3.4782195505569153e-09  -9.9995342492875891e-05  -9.9995485002008709e-05  7.0714776595134040e-05  7.7829229405849125e-08  1.7450267285891920e-09  1.6876181161705431e-09  -9.9995606300274438e-05  1.1808552775533907e-04  -9.9991152835875641e-05  -9.9824161567559514e-05  -9.9990881587328837e-05  1.9312853624802236e-05  1.4551593139809738e-09  -8.7849719567758289e-05  -6.6060868050454963e-05  -9.9995669063141892e-05  -9.9995680080281553e-05  -9.9995730153042324e-05  5.4212204949258313e-04  8.9324996696703930e-05  1.9748531139868977e-09  1.2168107978209346e-07  1.3103987660318012e-09  5.4263007706584280e-09  5.9097900729595718e-04  2.8897135993673304e-04  -9.9882401852970215e-05  1.3619184979052640e-05  1.5589154022962548e-09  1.2974692508988199e-05  2.0545219349242647e-09  9.1390612240811807e-04  2.6201579214070103e-03  1.6329347285474204e-09  5.2950877346626558e-04  1.0106619683397180e-03  1.0573789360071868e-05  1.5139531579029718e-09  -9.9995866323450444e-05  -9.7797579038187243e-05  1.1592207653535957e-03  4.8547128502676722e-05  -7.5653080681057527e-05  1.2784183933356296e-03  1.0663364791147745e-03  -9.8455278492411957e-05  1.3522511778301144e-09  2.1795975622055643e-09  1.4679857987001019e-03  -5.4720626937936757e-05  -7.1304796704892848e-05  -9.9995697733522794e-05  -9.9995834626866731e-05  1.6057499586953689e-09  -9.9995868577959509e-05  1.6176474269464613e-09  1.3490243899595530e-09  9.2979437484541009e-04  -9.9995625624814033e-05