<?xml version="1.0"?>
<VTKFile type="UnstructuredGrid"  version="0.1"  >
<UnstructuredGrid>
<Piece  NumberOfPoints="6486" NumberOfCells="12696">
<Points>
<DataArray  type="Float64"  NumberOfComponents="3"  format="ascii">0 5 0  0 0 0  5 0 0  5 5 0  2.5 0 0  5 2.5 0  2.5 5 0  0 2.5 0  2.5 2.5 0  0 1.25 0  1.25 0 0  1.25 5 0  0 3.75 0  5 1.25 0  3.75 0 0  5 3.75 0  3.75 5 0  3.541666666666667 1.458333333333333 0  1.458333333333333 3.541666666666667 0  1.875 1.25 0  3.75 3.125 0  1.284722222222222 2.326388888888889 0  2.683189655172414 3.767959770114943 0  0.9375 0.9375 0  4.0625 4.0625 0  0.7252209595959597 3.026357323232324 0  2.763480392156863 0.9129901960784315 0  1.875 4.345238095238095 0  4.345238095238095 1.875 0  4.192708333333333 0.8072916666666664 0  0.8072916666666665 4.192708333333334 0  3.368055555555555 2.326388888888889 0  0.6837606837606839 1.738782051282051 0  3.285485245626782 4.324328415208927 0  2.551239698778062 1.693130150610969 0  1.827256944444444 2.868923611111111 0  3.464875022477093 0.6813924607921316 0  1.942880513719175 2.059558626187995 0  3.04563492063492 2.971230158730159 0  4.375 3.4375 0  2.13639445139758 0.5994472256987903 0  4.272228422619047 2.606956845238095 0  0.625 0 0  0 0.625 0  5 4.375 0  4.375 5 0  0.6400043240752655 2.384646170113389 0  1.347691225855598 1.660875475110776 0  3.515783617857982 3.723905460714006 0  3.125 0 0  1.875 0 0  0.625 5 0  4.375 0 0  5 1.875 0  0 1.875 0  0 3.125 0  1.875 5 0  5 0.625 0  0 4.375 0  3.125 5 0  5 3.125 0  1.489644181965304 0.6007147273217681 0  2.054597701149425 3.742302955665024 0  2.662520990197781 4.39452575763237 0  2.415835363784578 3.165530021913244 0  0.8679986894865213 3.602373689486522 0  1.267459753787878 2.886186079545454 0  4.099702380952381 1.365327380952381 0  1.316964285714286 4.438244047619047 0  3.7915135293491 1.959691594758709 0  2.875141124191255 2.118761176511833 0  3.00418010501169 1.397414179299248 0  0.4081721322167092 3.410647930198662 0  0.4166666666666666 0.9375 0  1.014190407998288 0.4422301359994293 0  1.383260571305984 1.162718286082048 0  4.53125 3.90625 0  4.453125 4.453125 0  3.772848162504192 4.48678272083473 0  2.8125 0.404329517041716 0  0.4538690476190476 0.4538690476190476 0  2.305461739347387 1.04517007574828 0  3.771263799175824 2.624190260297553 0  3.229617768018734 1.809956994202883 0  3.780190884441317 1.025307111692601 0  4.646337365591398 0.9375 0  4.537623451379149 0.4609485750426037 0  1.200477888421151 3.934852888421152 0  0.3536626344086022 4.0625 0  0.4623765486208503 4.539051424957397 0  4.0625 0.353662634408602 0  4.560525106689535 1.390989100915847 0  3.958439078571988 3.619844539285994 0  4.672619047619047 2.1875 0  2.1875 4.672619047619047 0  1.862808494877602 3.325947624431087 0  0.3268135998175443 2.8125 0  4.674181280189791 2.8125 0  2.283233994935276 4.138623547175983 0  0.9375 4.677879119362977 0  3.08488061581743 3.469889594488945 0  3.113427375573758 3.913955730709506 0  1.652847799068813 3.950848935641292 0  2.932652662909449 2.550542739521724 0  3.311350648514189 1.088831994878698 0  0.6770833333333333 1.295851139601139 0  0 1.5625 0  1.047214787840024 1.96818092308125 0  4.183331482095785 3.03958703580843 0  3.4375 5 0  1.071307777252521 3.246275861010018 0  0 2.1875 0  0.386576856303419 2.03125 0  1.713862716483534 2.439783116849799 0  1.775396256975935 1.665976816304977 0  2.231236976948428 1.443917394671254 0  2.373900732409897 2.086930260150635 0  4.114918237574474 2.221646174618671 0  3.661302567757379 4.099620139144836 0  3.378215938602977 2.734494874063393 0  0.9842097536079312 2.597286741306247 0  1.642795138888889 4.672619047619047 0  4.0625 5 0  2.099458800960004 2.567446522665629 0  2.616202751603346 1.297895893940078 0  5 4.6875 0  0.9937554350075428 1.512592975947215 0  2.8125 5 0  3.002695327068194 4.614055254615477 0  3.205627424097207 0.3852436382721472 0  1.678616581261621 0.927556612265266 0  3.365326698305438 3.196943731162083 0  1.554834936170314 3.120009882655813 0  3.108408340729323 0.7797187795784133 0  3.684368918102174 0.3728877601163941 0  2.716214835303553 3.39276351922003 0  2.37718583984784 3.551973401560441 0  0.3750662445374837 1.52191994866787 0  2.679073487930202 2.844160731602957 0  1.557635869750078 1.991068682985722 0  1.812595698561088 0.3839273018252746 0  2.512014721281916 0.6320641118792227 0  2.1875 0 0  2.349973454443689 0.3189980586887866 0  4.6875 3.59375 0  4.636052949022233 3.178355898044465 0  4.6875 5 0  3.345485909784306 4.665765449101383 0  0.536727472389443 3.749603193819277 0  4.349541499640203 1.116201826262156 0  2.886559045931982 1.774013674579691 0  0.6770833333333334 0.7142857142857143 0  1.5625 0 0  4.120842096538671 4.628726497527622 0  2.176157474177018 1.793470423744689 0  2.175650736889416 2.909863021769539 0  4.036616464259081 1.709699085170981 0  3.887974623473683 0.6492597046022868 0  3.4375 0 0  3.70675699592552 2.289666624772415 0  4.697265625 4.208984375 0  2.815177577303495 4.085937578239174 0  4.672619047619047 1.730733296184288 0  4.6875 0 0  5 0.3125 0  0.3125 5 0  0 4.6875 0  0.3276089296588581 2.484526834811734 0  0.712433309515852 2.065138854645612 0  0.6376435912223634 2.711473454001295 0  1.184991292170422 0.7222504400947201 0  1.31884329779317 0.3206944232264773 0  3.683609198994263 3.44428698533042 0  0.3125 0 0  0 0.3125 0  4.231797269642997 3.789141808928991 0  1.564375596050781 1.425998687184973 0  2.007640894175573 0.9032106925568466 0  0.955125897558294 2.276666098587227 0  1.43898735721003 2.611310720271951 0  1.954491523717513 4.040700257877075 0  1.752947649777421 3.652439445419346 0  2.509575750247638 4.678021307664052 0  4.687194709705067 2.499965519538002 0  1.5625 5 0  0.9375 5 0  5 2.8125 0  2.1875 5 0  5 1.5625 0  5 2.1875 0  4.0625 0 0  5 0.9375 0  2.8125 0 0  0.9375 0 0  0 0.9375 0  0 2.8125 0  0 3.4375 0  0 4.0625 0  5 3.4375 0  5 4.0625 0  4.010848109290813 3.306446973933037 0  0.3077461147713075 3.119700563473354 0  4.6796875 4.6796875 0  2.333079012424948 3.845757959077508 0  0.7829771267899832 3.317744656243421 0  1.159100632608513 3.532487125138763 0  0.799066251840424 3.893573750162776 0  1.57326499580282 4.255438189102632 0  0.7309366047093668 0.2991402264438908 0  0.3054777494262156 1.223275888123843 0  4.027475154280377 2.78211326942427 0  2.35270874745988 4.426658168476266 0  3.474236283732569 2.021154281686229 0  4.401414236174444 2.329446628171927 0  3.39403781747337 3.987097102903034 0  1.077524329801934 1.214100792470484 0  4.065611571711903 1.066085524514197 0  2.165399002716117 3.335637450367864 0  3.007639563081306 1.093684039371638 0  4.030818285732145 4.351883315180857 0  3.504115222530889 1.739284194222036 0  1.224503368215566 4.712091441401919 0  3.805634204685714 1.321528442399996 0  4.319233123479386 1.573547993867769 0  1.024007670021325 4.394604704797005 0  3.776400432023095 3.839003324979723 0  2.991819819453308 4.320567175146181 0  0.9782797534072181 2.886406017887129 0  1.763835134082104 0.6602345487826022 0  3.765182288741625 1.631193038541544 0  2.267959593989681 2.345053543725764 0  4.412434895833333 4.168294270833333 0  4.4072265625 4.7255859375 0  2.791493971314009 3.11210833271929 0  3.408766223032414 3.469500900677365 0  1.915147569444444 4.725484476461039 0  2.070301968506271 0.2605666686358055 0  2.767932250651506 1.530295992695836 0  3.280065043173439 1.364863281105779 0  4.45101570110842 2.974157152713635 0  3.521928862999512 2.96990445010402 0  2.552921961347576 4.008414007169315 0  0.2682955376854191 3.657555015841003 0  3.084522868361304 2.310593316718068 0  2.669255823227708 1.939379494498064 0  2.615884629473921 2.238841231570381 0  1.405652091971449 0.8877813821442277 0  3.25151486618811 3.68536115104276 0  1.963741569810629 2.331207252264507 0  4.017297980292599 2.486269171379106 0  3.869168920841219 4.748188103831625 0  3.596868753579134 4.77342723825056 0  2.41262958240343 2.764128584995838 0  1.266750578673391 1.404747710001619 0  1.559243962241121 2.85146506328516 0  3.128799423834764 2.052081657715259 0  0.6770833333333333 0.9778025793650794 0  0.2083333333333333 0.78125 0  1.978224492765132 3.087074731032578 0  4.051448850909273 1.969392119104174 0  1.320577095006813 4.172234780971559 0  3.214261103850064 2.534397293281829 0  0.2635729089754111 1.779234736680035 0  3.510775680035133 4.460728640112889 0  2.603081405968802 0.2432579385496493 0  2.866341315154884 0.6662105505481998 0  3.000919221100777 0.2270278495648781 0  1.298858304121393 2.05917319923859 0  2.020292299736597 1.589794568392338 0  0.7401688396476035 4.470780315741533 0  0.6721783535561408 4.733125588707921 0  3.753712482075402 2.874301339727514 0  3.557348205914658 2.491958694539413 0  1.094565978195436 0.2011034254079851 0  0.9338148378011396 0.6833568465908735 0  2.945530578578538 3.701798332963805 0  3.111707186654356 3.216904195825605 0  1.341791111822685 3.293123262233967 0  1.632939924064587 1.184895891095613 0  0.6335477978936732 3.517393619499591 0  0.5576014611130192 3.210998966942492 0  1.564344196470102 0.3630498725895039 0  2.75362450242839 4.626680495816594 0  3.571304405229554 1.192452351107437 0  3.522934592621944 0.9359134489437148 0  4.453125 3.671875 0  4.765625 3.828125 0  1.055906321410838 4.14310472322957 0  4.795146539102229 0.46875 0  4.767156345199235 0.7178596932040019 0  0.2048534608977711 4.53125 0  0.232843654800765 4.282140306795998 0  0.5393715189906129 4.270810883024032 0  4.329922600274667 0.2750645887059072 0  4.275515096738972 0.5448389557295173 0  4.477747423652795 0.7252838358993123 0  0.2002829820452772 0.46875 0  0.4352678571428572 0.6956845238095237 0  0.5007241582667088 0.2123388122114133 0  4.672890923830735 0.2500902110494848 0  0.4308009280819452 4.783624996516437 0  2.104871305393774 4.438653689007242 0  0.2274454167838428 0.2274454167838428 0  3.446466574593436 0.4359605369011901 0  2.12354112127588 1.217588426759619 0  2.309175236825235 0.7888355970690434 0  2.556178570281936 1.054299163237582 0  0.578683248637
[...]
<PointData  Scalars="f_16-3"> 
<DataArray  type="Float64"  Name="f_16-3"  format="ascii">4.1797804826312313e-49  -4.1157032423631395e-04  -2.0042263784025883e-49  2.6561810043935358e-73  4.0706061519126110e-22  -3.5026605931108669e-57  -9.4094166883261224e-58  -1.0904314771508277e-21  2.0533428085050607e-32  -1.0530685133141396e-09  -3.9497687404600131e-13  -2.8942306478141846e-53  2.5575134257304477e-36  1.4760041476258604e-54  7.5178598776478736e-35  -1.2725375248483142e-64  3.5694487220033881e-63  3.5969934314401260e-37  6.1098638463482339e-36  1.6386012909396899e-19  -7.7334720475449221e-47  6.2552017560430428e-22  -6.0235869403972212e-44  1.0384826924855043e-09  -1.1925841181042166e-58  2.0493336390268981e-29  3.3703444990028823e-29  -1.1173228956370942e-45  -5.5835321069446517e-49  1.3738985933177312e-43  1.2212095193384296e-42  -3.8037533997437195e-39  1.6071369058004491e-13  1.5647920190082647e-53  -1.2211846308601108e-27  1.3161110625749813e-28  -3.3125600591695955e-36  3.5835417130545066e-24  -2.4270574856171914e-39  3.7988283595562480e-55  1.1233149021410808e-21  -2.1656979237748692e-49  8.1469172528017815e-08  -7.9734011385997137e-04  4.1119174503006263e-69  -1.3051025320548024e-67  -1.8166368468743287e-21  1.9908427040236185e-16  -5.3731620679319534e-49  -1.3934502458668816e-27  3.3417041576028942e-19  4.9360856392258927e-52  1.9911180069167051e-41  -4.9106298307515015e-55  -1.4757250927366688e-15  2.2027041335417814e-29  6.8332493044911878e-53  -9.7323350657404296e-50  2.7339996737444031e-42  -3.0086765635797188e-59  3.0994811295444494e-60  -2.9810106683336329e-15  8.2131642763051386e-40  1.5034595098827436e-50  -1.2782824656546721e-36  9.9089574400766631e-36  3.2574624639813256e-27  -1.1727240470950192e-43  -1.5062038240591008e-46  -5.3372271556164139e-43  -3.1095392074328237e-33  -9.3891370030943901e-33  -8.0267022088350923e-36  9.8638308547565332e-06  -1.9625637834778599e-10  2.6670128284328263e-15  -6.6160015969509447e-61  -8.6249748047763689e-65  2.4997958897379466e-58  2.7590161979058222e-28  -1.4497214801375549e-04  1.5589038761150951e-23  -5.3463898105492616e-45  -2.2727618117054965e-35  -1.5479103986806886e-39  -9.1554376448017887e-49  8.3519302999507187e-46  1.1622050930339597e-42  1.3631114647400541e-41  8.2245151582672082e-46  2.9718337354244713e-40  1.1715888289711254e-49  2.7329175692347889e-53  -9.9509853656391829e-52  -6.7241487700855261e-51  -5.6391348427854019e-34  2.4335534840557031e-25  -6.4400331276379399e-55  5.9287844589840764e-46  1.2173342017574749e-48  6.8492489026214504e-44  -1.8846895327499414e-48  -6.2416301236969992e-40  2.9478391473987101e-37  1.4207307579701729e-34  9.7931284812526535e-11  -5.9492132054628491e-13  7.5275955016617627e-17  1.6555073367565118e-51  -1.9862519575772532e-61  5.3593100761300278e-32  -6.9810028061592065e-18  1.7453416041288070e-15  8.3410207565136876e-25  -4.1187036485296421e-20  -3.1556651077502272e-25  -2.9940374095640871e-28  1.3394574283746871e-46  -2.6123414777270172e-53  -5.3433987500700163e-41  8.0982044449299355e-25  -1.1295639288314273e-48  8.1422149664648336e-64  6.1724767195105540e-28  4.0760985709487463e-29  6.2525052182464080e-72  -2.3991945411644777e-14  1.1798736847134459e-58  8.9648320640397700e-54  -1.2009913075669420e-30  -5.4047745752663207e-16  2.7869821836480528e-45  -3.7333114877889344e-30  4.0690948068939834e-33  3.3287610833338751e-36  -1.5731005803231569e-39  -1.1116310061720985e-39  3.7814921694786248e-10  -5.4861673444108969e-36  -6.7040559766079017e-21  -7.5691440347566223e-19  -3.4393956795045979e-25  6.9936450258556682e-21  -1.8415505895160222e-23  -5.6222349320150515e-60  3.0824874051376951e-57  -1.3231801698249806e-70  6.8279126194221781e-58  4.6482167651560112e-38  5.0160913804305326e-47  1.1124610098088575e-30  -3.5690612674644896e-07  -5.1061047339011087e-15  8.9002573942230058e-62  4.1303086713846645e-24  -3.0509919283560555e-33  1.1731430270651869e-44  8.6685889692266709e-40  -1.8253170186882825e-32  -5.8020221990738937e-42  -7.1354200910733057e-64  2.2960913823866647e-47  -8.5437194345648930e-51  -2.1960219713313644e-44  8.0925040048193734e-49  3.4077707341061784e-50  3.0935679029499043e-46  -2.5145074555147070e-21  2.3970477206943495e-18  1.0203647401999917e-24  -8.6754732432237254e-12  2.8771351148853234e-15  1.2837370436255309e-48  -6.0904521663679374e-05  2.1990182764152310e-03  3.1877925931482668e-56  -5.1441296624073858e-17  -1.3001039985427884e-20  -1.3388984750828182e-21  -1.3047742905665382e-24  3.9610043968098775e-43  8.7111548705397348e-37  -1.6743373887688611e-53  8.1034266359511527e-54  -7.1121856704762773e-53  -1.3601378750886035e-53  -2.3946495451318589e-58  1.6723483039077026e-54  -6.8148459624924601e-55  -7.3345580922543135e-56  -5.1435528047404503e-38  -1.2621004325457744e-51  -1.5130787035344209e-24  -6.6383598644284744e-09  4.8948821314533422e-06  1.1114592926968151e-25  2.1978760655999561e-32  -6.2566651604632555e-39  4.3932245074171134e-61  -3.7977191953883165e-67  1.4787372573264863e-50  3.1330564025554762e-29  1.9938612856053131e-68  8.4853847361630287e-43  1.6166681395479607e-32  5.8961424158845999e-37  2.8854742783509406e-39  9.7044054151384192e-45  8.8231255314502172e-08  4.9505335301738669e-08  1.8719460992631694e-50  5.9936682543227515e-50  1.0265040113130555e-37  -3.8048039929158914e-48  -7.8434822032844638e-51  -7.1374559166994564e-12  2.0064368570728692e-43  -5.5130930431372568e-36  1.6910334269596113e-31  -1.3208621414006843e-59  -4.3477991192083206e-38  -3.2769344822381496e-49  -2.8490581466149596e-41  -2.6117070891143914e-46  -7.3610952560703603e-45  4.2204435470110136e-52  -7.4783614618247107e-51  -4.7078868120245946e-28  -4.5651214857660431e-17  -2.7985244599129601e-41  5.0974631420261720e-28  1.8775372185003075e-61  -2.1527391748236127e-65  -1.6452194970489524e-39  -1.7389828554218285e-46  -1.4696370913596922e-50  6.9290565063080014e-21  1.6695086255103910e-30  -9.8912820539323409e-36  7.2637839444347522e-53  4.2280490955414928e-44  2.0954044085982488e-45  7.5041914840853285e-37  1.1260847136798885e-35  8.4720175236487484e-30  3.5494820090835194e-32  -2.0330739914105572e-13  -1.4053845272598368e-46  -1.4008833944795825e-24  2.5030101687878252e-45  -8.3183838690844449e-61  -3.0309720160149008e-60  -1.2444347154689406e-33  6.7960559250165213e-14  5.0538293355381263e-28  6.6452533076569183e-35  -1.1463275106204814e-07  9.9510507317912181e-06  1.7413956767608595e-32  2.5128028838808667e-45  6.5009311937428213e-43  1.3529720464693814e-38  6.3447952106913548e-14  -3.2336324179530717e-56  3.7037671355768879e-25  6.8467302322861568e-30  2.9742861606973236e-28  -5.2474733621595748e-20  -2.0674492183075288e-21  -6.6936885114653391e-46  -1.0639955000929060e-49  1.6806398630129922e-45  8.3095844096121860e-42  2.3655993866837208e-10  2.2564763443505307e-10  3.6719557520785737e-45  -1.3159983629530607e-41  2.2913558406464688e-32  -3.7141349100641022e-16  3.9427060065531942e-35  -2.7389988944438551e-32  7.9388001416128170e-16  3.7583084716297159e-53  4.7586489263700276e-38  2.7532893342112230e-38  1.0841654774941314e-58  6.6098275857231910e-63  -1.7789293175366903e-43  -3.8830007996272836e-47  3.9664463682436939e-48  -1.0212953583152220e-44  5.5152847656542622e-42  -5.5730436121574215e-44  7.3779128288463082e-42  3.7526878408288890e-43  -9.1055456584140280e-45  2.1711477832733219e-02  -1.4057896829708263e-04  5.0594946047755204e-06  -1.0778377086408863e-44  2.9110021610113557e-49  2.7074995867383124e-49  -5.5235073302538915e-03  1.1715947954171195e-35  -1.2866922812887012e-21  -2.6627209665031955e-25  2.0966033138614700e-26  -4.3916952098102514e-41  2.0341010964092533e-42  -5.3504711534381776e-23  3.3526937651073536e-38  -7.0469995467310497e-37  3.8869275573311039e-51  2.6463148565433375e-53  7.7068383854657185e-67  8.1147145237392960e-12  1.0940519474828753e-38  -1.1660342308084224e-38  2.6992785963121931e-33  7.7705719206010837e-54  -3.4457952483610572e-40  -1.8475805086447898e-38  -7.1050123920773487e-15  6.3482647642083104e-33  -5.2436883553929720e-37  -5.5287623313348892e-46  3.2012194374762073e-17  2.3429032289036981e-51  8.0795131417611538e-48  -2.5727018002282595e-19  -2.3090615771895158e-53  -1.2405813601339916e-12  1.3823833213354932e-24  4.7189223647584079e-55  4.7379447592039457e-55  -2.5917209883720821e-41  1.2513006250534362e-54  1.1561778805086935e-28  9.0755668989113986e-26  8.8331352542259141e-57  3.8007739167689256e-52  3.5993070955816936e-22  6.8576373454768841e-32  -4.5901280326422904e-36  1.0790929801373496e-56  3.7796498545330801e-34  6.7192083138788988e-60  5.0965667374197756e-51  6.8751913423442468e-34  -7.5754149365795361e-51  1.2906616369657827e-27  -2.6528697365808650e-11  1.6263492393242220e-10  -1.1335893233422271e-08  8.8267169878860302e-37  1.8228089480388666e-31  -1.0898644836234025e-19  1.4552789763008412e-56  1.2959080617983334e-54  -4.3877841709678817e-55  6.0804897505542137e-48  -1.1188359810975774e-70  6.8409934904621220e-49  -1.2374840909712701e-50  -3.5646736548993326e-29  -2.1110741095957003e-65  2.7998271968789122e-33  4.0572757171278096e-53  2.5173294561917788e-42  -1.3879473374744976e-40  1.4470708977267951e-34  -2.8530650027485089e-27  -1.5819292978487764e-08  -3.0357445919875684e-61  8.4565928645309717e-42  5.0477116424877755e-27  -9.7994305081927583e-28  -9.2625785264801085e-56  -1.6697451648132764e-17  3.0670751489811411e-19  6.9891665231699571e-18  1.3581556480569415e-22  1.6806133898717959e-41  1.0127161831795994e-26  -4.5175315678152808e-38  1.9060808182649651e-34  -6.7426004397523376e-43  2.2544008150874551e-46  4.5666473800412226e-51  3.1136017506651617e-31  1.6212665332641312e-25  4.1170733091853579e-13  -4.0690092840658633e-46  -1.0416308946872891e-13  -2.7464225299403210e-21  1.4572344664303149e-58  -1.4961977874629629e-36  5.4303196916467764e-34  4.0665385873994621e-57  -1.9232640422045760e-28  -1.8610453582594756e-07  1.2528550843385537e-16  -1.2016057454958395e-44  -8.3186711023949599e-49  -1.0219435873689617e-36  -1.0169626099406625e-46  5.6601217102510783e-56  -1.2067438579878681e-30  1.2516148422907430e-15  -1.9516728689350387e-46  1.3468267791153488e-24  -1.7018526864757941e-26  -9.5494577035556814e-26  -1.0610551349320023e-45  -2.4213405730381612e-34  5.4737873056659143e-30  -6.8679994216535048e-43  1.6420483584537562e-11  1.7624911019901900e-19  1.9497170594371530e-52  1.4433089412687450e-29  2.1862070909809536e-45  -2.5370107890666738e-51  -1.1376241412593524e-53  2.8786518533175733e-27  -1.0211404351006696e-22  4.1553933908308964e-38  -1.1337273297284130e-46  -1.7506842398534133e-52  -4.6343004259232827e-55  -2.8653698733992852e-14  -8.8065431202458251e-33  -1.2031193626636169e-50  -4.8574359482957301e-48  1.4258171843827476e-40  3.2183936423377817e-25  -3.5781586328855634e-41  -5.3570461344400812e-26  -4.3033413627423835e-49  -1.2711945638813934e-14  -1.6269870451054519e-49  -6.5261315885284619e-35  1.7386715570650806e-25  -1.0190668088809023e-37  -5.4913851335890029e-68  -3.9314807596560281e-19  -1.7397445793542506e-44  -6.0932224966022992e-31  1.2555297431905185e-18  4.0596233210586512e-43  5.0851661218832160e-37  7.1986987060786887e-18  -4.9600931719831971e-52  1.6802871833244250e-62  -3.2954568622874854e-49  4.1356323807093896e-53  4.2359196325869208e-21  -7.2686948711622881e-13  -6.7297003304637628e-31  2.4705203786039417e-14  -3.1690589907988310e-43  4.1532773975006330e-32  -2.2229333741295925e-22  6.4345195022578883e-42  -6.8783307915556829e-40  -4.5614862111080269e-27  -3.6505077680084358e-48  1.6380771224645876e-16  -7.8937771172545475e-33  -7.1933518501089725e-10  1.2525455055649599e-37  6.6033399348799698e-15  1.3318917966771455e-18  -4.4935232239715249e-23  7.3219378877173578e-28  7.9288092082292601e-27  -3.5693670653803597e-41  5.5498278925075313e-43  9.0703969513386436e-39  -1.0214546641332272e-09  8.8935635948756224e-53  -4.3031081423146964e-60  -7.7697698655683148e-64  -3.3097709210484748e-48  -3.1106590686964626e-23  -1.9191626076021572e-59  -1.9914120078464746e-15  -5.7865737335177969e-21  1.7402759853886284e-23  1.6323427977177175e-44  -4.1531073129643188e-29  -3.3948693587313851e-30  -3.7089298337925459e-53  -4.8614631210307106e-34  2.2609516972919456e-54  -1.7652025329762362e-54  -1.0437441036238131e-43  -1.5163357523822775e-55  8.2118947848530794e-39  -9.2000295014429582e-61  -2.2208028103039978e-42  2.1717992711901446e-36  -1.0463439588269448e-31  -3.0793328351846768e-08  1.1924448216624229e-51  6.6487567762038884e-50  1.7096252290022122e-51  3.2735636361277636e-20  -6.6753248451975790e-37  3.7696483094562319e-36  -2.5600426165222935e-40  3.6352880536329598e-63  -4.1259877820153400e-20  1.1435035415603739e-47  6.5337508264438683e-20  1.6505014495544028e-18  -2.6565626294229331e-44  4.7052381314901739e-37  1.2434539597380856e-40  3.0729188920593942e-52  -6.0108542282999898e-52  2.5841314935604735e-22  -2.8903211749714343e-16  2.2078236703331224e-33  5.0880359626035141e-50  -4.8024282724084276e-46  -2.1956235707401730e-38  1.7056677223560878e-39  1.6099998966783736e-40  4.2848194330078146e-49  4.0894326697133003e-40  7.7880299355036852e-57  -6.7099907178196832e-45  5.8052703473097736e-24  1.5650605470550293e-54  -5.0588409651002019e-47  1.1179458780491118e-44  1.5564253661664467e-43  2.6800405455069736e-63  4.2109792610481127e-61  -1.4446654681904298e-59  -7.3216588629134386e-49  2.2296375332080502e-48  4.4906288108205877e-44  4.8203502476267852e-19  1.4428518372276362e-19  9.0973323090275486e-36  2.3256572096062489e-55  -5.0262074860279695e-60  -2.3443481789893994e-40  1.6297471973289019e-65  -7.6249516622950848e-65  2.8813466261715274e-29  -3.9698604339117559e-34  2.1024618303149716e-46  -7.4930361844428350e-44  -1.2784776752500621e-36  5.2198203194072522e-18  -1.0343578788631487e-50  4.7075208004255406e-49  4.1297754319936645e-45  -3.9737978152747296e-07  1.6923701253085839e-06  3.5669007437932272e-08  2.2659931907873508e-40  1.2506853748606072e-46  -1.7938318573153655e-45  -5.7111224714165638e-14  -1.9105781385420759e-53  -8.7001408241292652e-47  -8.8319707871845702e-30  -1.3875160988755274e-35  1.9609411871052320e-48  4.8949154765995837e-70  1.5732461006808240e-39  7.5902118179374612e-59  8.5850807386968610e-65  1.4763209238583252e-12  -6.2641530642425842e-29  -1.3376164532711439e-38  -1.6455697014003926e-50  -2.0777889529017413e-53  1.6125510605902425e-35  -2.3341649042010452e-49  -2.0570091261496931e-11  6.2890525570205565e-34  -1.0865600032668404e-65  2.0349437670336619e-32  -1.1328315706810952e-15  -1.0164035235817387e-25  -6.6569238916940232e-46  -8.7463377554495715e-26  2.1947943814633727e-30  -2.7635500266032395e-22  -2.8677327270358756e-52  8.0352678989808019e-43  4.3036693162293656e-07  -1.1642425189629420e-24  3.7214372019760969e-13  -6.7644669633287146e-12  4.1474377743296829e-14  -3.1366905990339742e-10  -6.0428485200487674e-10  1.1355241708482661e-53  -5.7949261950505282e-56  1.4765340906885345e-34  -2.6590795332684804e-31  -4.2094850853036199e-32  3.2629947158713979e-27  -1.2452266096879489e-03  -6.5373464065824324e-49  -1.6290736995995719e-52  -2.3784232552968283e-20  2.3256409315395330e-58  -7.9206985737767530e-48  -2.3960334297648267e-61  1.0106200550967323e-45  5.8820133247689439e-61  -6.6532530033293074e-23  2.7623935673839358e-54  1.0695304377922016e-32  1.1581551590680441e-52  1.3401831177070257e-51  -3.9008171699184379e-04  -3.5510445886602326e-01  1.3152569309888644e-57  -2.6335792727316565e-23  -9.4460068337972785e-68  -6.1426574117503258e-03  2.7403118293539616e-42  2.0122840802743070e-49  -3.9787762299336586e-15  -2.9404668767305988e-16  1.6682219630269881e-37  1.1160672522263243e-50  -2.5315742073244456e-32  3.4713147864805615e-22  3.1336977540929419e-64  5.6925696394097382e-07  2.2138923683596399e-42  -5.4747018787250288e-42  7.4526803588406127e-20  -2.2629299369759878e-49  1.3792305640162051e-09  -3.2528953626695756e-33  -5.6354973850432288e-45  -1.0424757580467575e-41  -6.4974152279292940e-39  1.4427699151335915e-56  1.2345441743126344e-32  -2.4593260679072831e-41  -7.1790318862343765e-26  1.8833349517076961e-42  5.6566216821769950e-48  -1.1092454657612553e-52  -7.9071769625817732e-55  4.2730636280354135e-42  -7.4010153694521504e-23  2.9672683275660110e-56  -5.0600173665515952e-57  2.2424117046764208e-21  -6.4121061771944209e-69  6.4231392844998709e-52  9.0408205290589600e-67  -1.3444954915717761e-47  -3.8516166047679543e-51  -1.7177839512666241e-57  3.3215643783945847e-31  -2.8015259595900244e-53  5.4618221002457793e-61  1.3927056902219727e-32  8.0104157807113454e-30  8.1331168961053632e-56  -7.9139517948599551e-57  6.5500626562341749e-59  -2.8448052203644437e-17  7.3731261354497575e-19  -2.3070712957382118e-24  6.1274456792009128e-56  4.2505548631187011e-12  -3.3239902686466544e-16  -5.0734053351763610e-36  9.1096395690175196e-38  1.6075381559142474e-51  3.3480217163339795e-06  -1.8318644480684467e-44  4.7279659294583080e-49  2.2473764744958924e-10  1.3304850031415611e-26  1.7744714250600771e-03  8.1426349206092282e-05  9.0460403311642919e-64  3.4401134091708448e-70  -1.6023245930670846e-73  5.4219939759107787e-71  3.8427574912723621e-27  1.9275156471400603e-57  1.1872863600096106e-07  -1.9572399174040936e-63  4.5352450737572287e-68  -6.9142933964916328e-51  5.2280600432842572e-42  5.3777543336458827e-50  1.9256228042789813e-34  7.4014594697915663e-52  2.5588028708152504e-31  1.1132322692459562e-55  -8.6909883135391127e-13  -1.5149933539088683e-11  2.0391828236319728e-10  -4.7927911987745803e-58  2.0591979657965692e-09  5.7917631353909518e-20  -1.7073333643342205e-09  -2.6440666167364078e-43  -1.0887739070308944e-24  -7.0639939497571657e-23  -2.0183221062941315e-44  2.0461452921858324e-27  2.4125418003157007e-29  -2.4618676144525216e-32  7.1697016187205349e-24  2.2702118231881443e-09  -1.2315844341619577e-09  -2.4577718404534782e-50  -1.8396897330210336e-46  5.2118023598293177e-42  -2.3550888991195943e-48  3.1185541516071718e-14  3.7122888706391143e-56  -6.6270178721329200e-30  -3.1703810738761140e-44  -8.0423768595046606e-27  -1.8433946408561619e-16  -7.3733888024546645e-37  5.5182419665754644e-41  -8.8961214162687381e-31  -1.8222082771525139e-22  -3.9479312822127158e-23  2.4332550610859145e-39  -5.2950593933802189e-52  -2.1246677351031395e-15  -6.2437234119967272e-47  1.2895264048634150e-47  -3.2247837598003742e-29  6.5778672777645113e-38  1.1098354725879896e-17  -1.6335410085256157e-41  8.3219286053460510e-14  1.9055020719948318e-55  -2.5634594976413094e-33  -3.6349596890216189e-35  -1.0675517941564032e-51  -3.5015645055555333e-47  -5.5627457480583974e-46  2.0645649705421314e-49  2.0899015462823012e-48  -4.6983863374140227e-45  -4.9257997694165202e-26  -4.0446448693856411e-46  -1.3060687649245968e-35  -3.7167093559025369e-27  1.5386267244302766e-37  6.5995476144937461e-39  -1.9538569884116582e-56  -1.6892044060053505e-33  -2.1222494457610041e-38  -5.1067697185338295e-39  1.4960621554467155e-42  -6.8868985222407732e-44  5.2604917088971952e-31  -2.2058256858202527e-32  1.5388824694935228e-34  -1.5499485119097070e-26  4.8666366768620829e-44  -1.6037652281505172e-50  8.1005020568634418e-53  -6.3613874519486624e-46  3.7771451880447921e-43  -1.6183907836371047e-46  -5.5288614706824264e-55  5.3487371939138437e-40  -9.7583367098231789e-30  -8.4784666425373816e-55  -1.5200528705794646e-53  -5.5502210582546089e-51  1.0924991606541665e-35  -2.4541613829174975e-27  -8.4276906457255347e-21  3.7342254302008284e-40  7.6333702730996657e-39  1.2125048831226140e-18  1.0798172202349074e-27  -3.6349890942782358e-58  -1.7172183656712856e-13  -7.1434129706880926e-38  -4.4910076892347762e-58  -3.9074287688725980e-59  -7.1034245253236060e-65  -7.5828101393096596e-45  3.8360590017024716e-51  -1.4643129495802422e-28  -7.5936690302404594e-40  9.5400605236613610e-36  -4.0913478409538577e-25  -3.1505415444974142e-49  -9.3477147441141361e-52  -1.4595453977248537e-37  3.2053460183026441e-46  2.6802034386645584e-24  -2.0002636859706492e-35  -1.3611727026776971e-28  2.9949938830826807e-26 