<?xml version="1.0"?>
<VTKFile type="UnstructuredGrid"  version="0.1"  >
<UnstructuredGrid>
<Piece  NumberOfPoints="6486" NumberOfCells="12696">
<Points>
<DataArray  type="Float64"  NumberOfComponents="3"  format="ascii">0 2.5 0  0 0 0  2.5 0 0  2.5 2.5 0  1.25 0 0  2.5 1.25 0  1.25 2.5 0  0 1.25 0  1.25 1.25 0  0 0.625 0  0.625 0 0  0.625 2.5 0  0 1.875 0  2.5 0.625 0  1.875 0 0  2.5 1.875 0  1.875 2.5 0  1.770833333333333 0.7291666666666666 0  0.7291666666666666 1.770833333333333 0  0.9375 0.625 0  1.875 1.5625 0  0.642361111111111 1.163194444444444 0  1.341594827586207 1.883979885057471 0  0.46875 0.46875 0  2.03125 2.03125 0  0.3626104797979798 1.513178661616162 0  1.381740196078431 0.4564950980392157 0  0.9375 2.172619047619047 0  2.172619047619047 0.9375 0  2.096354166666667 0.4036458333333332 0  0.4036458333333333 2.096354166666667 0  1.684027777777778 1.163194444444444 0  0.3418803418803419 0.8693910256410255 0  1.642742622813391 2.162164207604464 0  1.275619849389031 0.8465650753054845 0  0.9136284722222221 1.434461805555556 0  1.732437511238546 0.3406962303960658 0  0.9714402568595876 1.029779313093998 0  1.52281746031746 1.485615079365079 0  2.1875 1.71875 0  1.06819722569879 0.2997236128493951 0  2.136114211309524 1.303478422619048 0  0.3125 0 0  0 0.3125 0  2.5 2.1875 0  2.1875 2.5 0  0.3200021620376328 1.192323085056694 0  0.6738456129277992 0.8304377375553881 0  1.757891808928991 1.861952730357003 0  1.5625 0 0  0.9375 0 0  0.3125 2.5 0  2.1875 0 0  2.5 0.9375 0  0 0.9375 0  0 1.5625 0  0.9375 2.5 0  2.5 0.3125 0  0 2.1875 0  1.5625 2.5 0  2.5 1.5625 0  0.7448220909826522 0.3003573636608841 0  1.027298850574712 1.871151477832512 0  1.331260495098891 2.197262878816185 0  1.207917681892289 1.582765010956622 0  0.4339993447432606 1.801186844743261 0  0.6337298768939392 1.443093039772727 0  2.049851190476191 0.6826636904761904 0  0.6584821428571428 2.219122023809524 0  1.89575676467455 0.9798457973793544 0  1.437570562095628 1.059380588255917 0  1.502090052505845 0.6987070896496241 0  0.2040860661083546 1.705323965099331 0  0.2083333333333333 0.46875 0  0.5070952039991439 0.2211150679997147 0  0.6916302856529919 0.5813591430410241 0  2.265625 1.953125 0  2.2265625 2.2265625 0  1.886424081252096 2.243391360417365 0  1.40625 0.202164758520858 0  0.2269345238095238 0.2269345238095238 0  1.152730869673694 0.5225850378741401 0  1.885631899587912 1.312095130148776 0  1.614808884009367 0.9049784971014416 0  1.890095442220658 0.5126535558463003 0  2.323168682795699 0.46875 0  2.268811725689575 0.2304742875213018 0  0.6002389442105756 1.967426444210576 0  0.1768313172043011 2.03125 0  0.2311882743104251 2.269525712478698 0  2.03125 0.176831317204301 0  2.280262553344767 0.6954945504579233 0  1.979219539285994 1.809922269642997 0  2.336309523809524 1.09375 0  1.09375 2.336309523809524 0  0.9314042474388009 1.662973812215543 0  0.1634067999087722 1.40625 0  2.337090640094896 1.40625 0  1.141616997467638 2.069311773587991 0  0.46875 2.338939559681489 0  1.542440307908715 1.734944797244472 0  1.556713687786879 1.956977865354753 0  0.8264238995344066 1.975424467820646 0  1.466326331454725 1.275271369760862 0  1.655675324257095 0.5444159974393489 0  0.3385416666666666 0.6479255698005697 0  0 0.78125 0  0.5236073939200119 0.984090461540625 0  2.091665741047893 1.519793517904215 0  1.71875 2.5 0  0.5356538886262603 1.623137930505009 0  0 1.09375 0  0.1932884281517095 1.015625 0  0.8569313582417669 1.2198915584249 0  0.8876981284879677 0.8329884081524883 0  1.115618488474214 0.7219586973356271 0  1.186950366204949 1.043465130075318 0  2.057459118787237 1.110823087309335 0  1.830651283878689 2.049810069572418 0  1.689107969301489 1.367247437031697 0  0.4921048768039656 1.298643370653124 0  0.8213975694444444 2.336309523809524 0  2.03125 2.5 0  1.049729400480002 1.283723261332814 0  1.308101375801673 0.6489479469700392 0  2.5 2.34375 0  0.4968777175037714 0.7562964879736076 0  1.40625 2.5 0  1.501347663534097 2.307027627307738 0  1.602813712048603 0.1926218191360736 0  0.8393082906308107 0.463778306132633 0  1.682663349152719 1.598471865581041 0  0.7774174680851571 1.560004941327907 0  1.554204170364662 0.3898593897892066 0  1.842184459051087 0.186443880058197 0  1.358107417651776 1.696381759610015 0  1.18859291992392 1.77598670078022 0  0.1875331222687418 0.7609599743339348 0  1.339536743965101 1.422080365801479 0  0.7788179348750389 0.9955343414928611 0  0.9062978492805438 0.1919636509126373 0  1.256007360640958 0.3160320559396114 0  1.09375 0 0  1.174986727221844 0.1594990293443933 0  2.34375 1.796875 0  2.318026474511116 1.589177949022232 0  2.34375 2.5 0  1.672742954892153 2.332882724550692 0  0.2683637361947215 1.874801596909639 0  2.174770749820102 0.5581009131310781 0  1.443279522965991 0.8870068372898454 0  0.3385416666666667 0.3571428571428572 0  0.78125 0 0  2.060421048269335 2.314363248763811 0  1.088078737088509 0.8967352118723447 0  1.087825368444708 1.454931510884769 0  2.018308232129541 0.8548495425854904 0  1.943987311736842 0.3246298523011434 0  1.71875 0 0  1.85337849796276 1.144833312386208 0  2.3486328125 2.1044921875 0  1.407588788651747 2.042968789119587 0  2.336309523809524 0.865366648092144 0  2.34375 0 0  2.5 0.15625 0  0.15625 2.5 0  0 2.34375 0  0.1638044648294291 1.242263417405867 0  0.356216654757926 1.032569427322806 0  0.3188217956111817 1.355736727000647 0  0.5924956460852111 0.36112522004736 0  0.6594216488965849 0.1603472116132387 0  1.841804599497131 1.72214349266521 0  0.15625 0 0  0 0.15625 0  2.115898634821499 1.894570904464496 0  0.7821877980253907 0.7129993435924866 0  1.003820447087786 0.4516053462784233 0  0.477562948779147 1.138333049293613 0  0.719493678605015 1.305655360135975 0  0.9772457618587566 2.020350128938537 0  0.8764738248887107 1.826219722709673 0  1.254787875123819 2.339010653832026 0  2.343597354852534 1.249982759769001 0  0.78125 2.5 0  0.46875 2.5 0  2.5 1.40625 0  1.09375 2.5 0  2.5 0.78125 0  2.5 1.09375 0  2.03125 0 0  2.5 0.46875 0  1.40625 0 0  0.46875 0 0  0 0.46875 0  0 1.40625 0  0 1.71875 0  0 2.03125 0  2.5 1.71875 0  2.5 2.03125 0  2.005424054645407 1.653223486966518 0  0.1538730573856537 1.559850281736677 0  2.33984375 2.33984375 0  1.166539506212474 1.922878979538754 0  0.3914885633949916 1.65887232812171 0  0.5795503163042564 1.766243562569382 0  0.399533125920212 1.946786875081388 0  0.7866324979014098 2.127719094551316 0  0.3654683023546834 0.1495701132219454 0  0.1527388747131078 0.6116379440619215 0  2.013737577140188 1.391056634712135 0  1.17635437372994 2.213329084238133 0  1.737118141866284 1.010577140843115 0  2.200707118087222 1.164723314085963 0  1.697018908736685 1.993548551451517 0  0.5387621649009668 0.6070503962352419 0  2.032805785855952 0.5330427622570983 0  1.082699501358059 1.667818725183932 0  1.503819781540653 0.5468420196858188 0  2.015409142866072 2.175941657590429 0  1.752057611265444 0.869642097111018 0  0.612251684107783 2.356045720700959 0  1.902817102342857 0.6607642211999982 0  2.159616561739693 0.7867739969338844 0  0.5120038350106624 2.197302352398502 0  1.888200216011548 1.919501662489862 0  1.495909909726654 2.16028358757309 0  0.489139876703609 1.443203008943564 0  0.8819175670410521 0.3301172743913011 0  1.882591144370812 0.8155965192707721 0  1.133979796994841 1.172526771862882 0  2.206217447916667 2.084147135416667 0  2.20361328125 2.36279296875 0  1.395746985657004 1.556054166359645 0  1.704383111516207 1.734750450338683 0  0.9575737847222222 2.36274223823052 0  1.035150984253136 0.1302833343179028 0  1.383966125325753 0.7651479963479179 0  1.64003252158672 0.6824316405528895 0  2.22550785055421 1.487078576356817 0  1.760964431499756 1.48495222505201 0  1.276460980673788 2.004207003584658 0  0.1341477688427096 1.828777507920502 0  1.542261434180652 1.155296658359034 0  1.334627911613854 0.9696897472490321 0  1.30794231473696 1.119420615785191 0  0.7028260459857245 0.4438906910721139 0  1.625757433094055 1.84268057552138 0  0.9818707849053143 1.165603626132254 0  2.0086489901463 1.243134585689553 0  1.934584460420609 2.374094051915812 0  1.798434376789567 2.38671361912528 0  1.206314791201715 1.382064292497919 0  0.6333752893366955 0.7023738550008095 0  0.7796219811205605 1.42573253164258 0  1.564399711917382 1.026040828857629 0  0.3385416666666666 0.4889012896825397 0  0.1041666666666667 0.390625 0  0.989112246382566 1.543537365516289 0  2.025724425454636 0.9846960595520872 0  0.6602885475034063 2.086117390485779 0  1.607130551925032 1.267198646640915 0  0.1317864544877056 0.8896173683400176 0  1.755387840017567 2.230364320056445 0  1.301540702984401 0.1216289692748247 0  1.433170657577442 0.3331052752740999 0  1.500459610550388 0.113513924782439 0  0.6494291520606965 1.029586599619295 0  1.010146149868299 0.794897284196169 0  0.3700844198238017 2.235390157870766 0  0.3360891767780704 2.36656279435396 0  1.876856241037701 1.437150669863757 0  1.778674102957329 1.245979347269706 0  0.5472829890977179 0.1005517127039925 0  0.4669074189005698 0.3416784232954367 0  1.472765289289269 1.850899166481903 0  1.555853593327178 1.608452097912802 0  0.6708955559113426 1.646561631116984 0  0.8164699620322933 0.5924479455478063 0  0.3167738989468366 1.758696809749795 0  0.2788007305565096 1.605499483471246 0  0.7821720982350511 0.181524936294752 0  1.376812251214195 2.313340247908297 0  1.785652202614777 0.5962261755537186 0  1.761467296310972 0.4679567244718574 0  2.2265625 1.8359375 0  2.3828125 1.9140625 0  0.5279531607054191 2.071552361614785 0  2.397573269551114 0.234375 0  2.383578172599618 0.3589298466020009 0  0.1024267304488855 2.265625 0  0.1164218274003825 2.141070153397999 0  0.2696857594953064 2.135405441512016 0  2.164961300137334 0.1375322943529536 0  2.137757548369486 0.2724194778647587 0  2.238873711826398 0.3626419179496562 0  0.1001414910226386 0.234375 0  0.2176339285714286 0.3478422619047619 0  0.2503620791333544 0.1061694061057066 0  2.336445461915368 0.1250451055247424 0  0.2154004640409726 2.3918124
[...]
<PointData  Scalars="f_16-3"> 
<DataArray  type="Float64"  Name="f_16-3"  format="ascii">5.3062736989394718e-05  -9.2349341685861186e-10  4.6040904248062142e-12  1.9766466483078240e-05  -2.5971046729789547e-10  2.3262735195508109e-07  7.1297237764141036e-05  2.2616847004457396e-04  2.9176147331158868e-04  2.1381584194655966e-04  -7.1713659892997107e-10  5.7303877280848752e-05  1.9329693512812161e-04  2.8884207407396501e-11  -4.3107390933475729e-12  1.2098517820313931e-05  1.0932568427827203e-04  1.0382430653851884e-07  2.3222174556977702e-04  2.2264727469029520e-05  9.5850339282281413e-05  4.9886394615268278e-04  3.9142907676643072e-04  1.3352972257022369e-04  1.6271482512721051e-04  2.2596414058206210e-04  2.3634175273915554e-08  1.4584421554936469e-04  7.7083384266025063e-08  2.2876665913595396e-11  1.5026566408093435e-04  2.4836284591702855e-05  4.8681179764327822e-04  2.7593897596398041e-04  2.0873754022537223e-05  4.7616771668927091e-04  4.4719329696916477e-11  3.4767133546669682e-04  2.5994475831554026e-04  3.9499279220483393e-05  1.3966591759514648e-08  4.8939556880068375e-06  -9.3294662680329792e-10  -2.1335443908473756e-05  2.3969822105650435e-05  6.1170690432772639e-05  2.4820176068608111e-04  5.1410840478144219e-04  2.8974949980176801e-04  -8.7182515122869112e-11  -4.7026960468391151e-10  5.1963480521922021e-05  1.0445257397572853e-11  4.9185681484970928e-09  2.2628961558911998e-04  2.2223887548618930e-04  5.7822160346864004e-05  3.7908453482469820e-12  1.2402789231956142e-04  9.9111256364686675e-05  2.8205045071898089e-06  2.1630240580487486e-07  2.7769583117591992e-04  1.9909902337913313e-04  4.7533036839170900e-04  2.0776172284614440e-04  2.9916186457007308e-04  4.5357139514481069e-09  1.2015542411781330e-04  1.1507402904661759e-06  4.4937972041200081e-05  6.8205513978798544e-07  2.1542386989791687e-04  1.2474053080141832e-03  1.9880543082120878e-07  8.4521735988545688e-05  5.2738644630329946e-05  8.0893624664609047e-05  1.9528890656949228e-04  -1.1646200629093621e-10  9.1127336652359830e-07  6.4373516747826155e-07  2.3023402141418679e-05  3.8777380615481557e-06  7.4815057930952302e-10  1.1707883945265826e-11  8.6094761582962835e-12  1.8360290214454903e-04  1.6357519589319810e-04  1.0246787819780459e-04  9.5955101707854678e-12  7.3272375189461241e-10  1.3961467967714379e-04  1.4893883199814932e-07  1.0353674638169979e-04  3.4524920795420111e-04  2.2548342106871848e-04  2.7823282741119730e-06  2.1793566971366839e-04  8.7651837610750838e-05  3.7976551040660544e-04  3.6912261245990538e-04  1.9619784943824382e-04  1.4185613999046574e-04  1.0959047446806241e-08  8.8738475371094095e-04  2.2538549897784758e-04  5.7329646317079474e-04  2.5531953845129156e-05  1.1328206404959486e-04  2.2980003075940956e-04  2.2634373258913559e-04  2.3837804008320404e-04  5.5110624454444751e-04  1.9843078141675686e-04  1.6943894408331300e-05  1.5922500325553043e-04  1.5161175376409049e-06  2.6004483607663682e-04  8.5357415687053263e-05  2.8676336336653222e-04  9.1932655690275594e-05  9.1154283045848344e-05  4.8080197676655034e-04  1.3908416284123527e-06  2.4112707796180138e-05  7.2211928057436237e-04  8.2955992963875994e-05  1.7380581417934408e-04  -6.3739543201465854e-11  4.3321020569035616e-06  2.1752626890972986e-04  3.1438505844205396e-04  1.1539413148840208e-09  -5.0379343680708448e-12  4.4612656284090618e-04  4.0062520788790572e-04  3.6601268413611379e-04  3.4983330776722931e-04  5.4064300178299698e-04  1.8479348369699639e-09  3.0094133301401505e-09  -3.6073623682446928e-10  -1.9499001873606249e-10  2.1770737657093635e-05  1.0151176024287404e-05  3.5989462704113913e-05  1.8294676309803942e-04  1.9691825143239839e-04  1.2931338281265182e-10  9.9976442619225969e-06  5.7026349951682181e-05  -5.7220063878963449e-10  1.2358935874617771e-04  1.0348095827603473e-04  4.9757320226669326e-04  8.5850231635793646e-08  1.2437560911310808e-11  -3.6259230184136790e-11  7.6261631319456675e-06  4.5237507687984176e-05  3.1383034820476642e-04  5.7626911157616305e-09  7.7521037885158640e-12  4.3089359590185334e-12  5.2752843358548754e-05  7.9654819750879245e-05  2.2689143792227617e-04  3.2778311245246634e-04  2.3038568403069694e-04  5.6454011852408273e-06  4.1559396720538973e-09  1.8273756029457718e-04  -8.6839618473625282e-10  -5.4283696634792465e-08  9.6128747328126844e-05  1.5391707178365736e-04  7.9957254035821781e-07  3.6782892870962635e-04  4.4343840488536655e-04  2.0336629054694693e-04  2.4930489833466501e-04  1.2095552627213454e-04  6.7919743226209242e-07  5.6896657527120620e-05  5.3022594274435165e-05  8.9331012785645818e-07  6.2146443561123647e-05  4.2162185526517930e-10  3.7797832201002584e-08  8.8098300628126144e-12  4.2886465280970146e-12  -1.5747066503445439e-10  -8.5386226509677966e-10  1.4851037305925360e-04  2.2534172328630568e-04  2.1393857413316589e-04  1.6548014274386471e-04  6.5387427559296211e-06  1.8696512741975650e-05  7.4086182264060759e-05  2.2235938709812668e-04  4.6774092674380766e-05  3.0551170438220519e-04  2.2003268289608110e-04  2.1568098187951158e-04  1.8531931520492095e-04  1.5079757938106427e-04  1.8982275805358108e-08  5.7199923273054665e-04  1.8944048268603931e-05  1.6157641202130751e-04  4.8087987429569909e-06  8.2667090345229989e-07  3.2706645101464500e-04  3.4333890384257408e-04  2.6570078485827238e-10  4.1842747566115659e-04  4.5516077875730175e-08  1.6269393862797734e-04  8.3239463423856543e-07  8.3948855058052876e-05  1.0016053328927544e-08  8.6945028292169008e-09  1.2562323310733975e-04  2.2441633509498812e-04  2.6030183116283479e-04  2.4605382142544186e-04  1.7572465714855059e-07  1.3526754985109936e-07  3.2916247868081355e-04  8.6615650767392309e-05  7.2664308416514747e-05  3.9066511819056454e-04  2.7906861866155514e-04  8.7170931360307420e-05  -2.7850695710231394e-10  3.9306687193492410e-06  1.4815731053860867e-07  1.0007228315308875e-05  1.1252380523731498e-04  2.9869272918426812e-04  2.0329876284677390e-04  4.9404101952486089e-05  4.0264611659613779e-05  1.3263117126975226e-04  1.1706792649831086e-05  3.5963388550656460e-04  4.6923312607435305e-04  7.1987978375811062e-06  1.4050971236091394e-04  1.5263177304529848e-04  4.2941941811116272e-04  3.6812391668466149e-04  3.9652540482668536e-04  1.6502427855725593e-05  5.4376795674886081e-04  1.4163002474032291e-03  4.4458105776994810e-04  4.5426951873411329e-07  1.5605293053447248e-04  7.2924718988376020e-05  2.3831050223538608e-04  2.3276332015427064e-04  -2.1735754715352955e-10  9.1879873580838885e-10  -1.1316911791859286e-10  6.0885015479107078e-04  7.5162374092123011e-05  1.1419872662792772e-04  7.7879188545813691e-05  5.0446304518427785e-05  2.6596136712022946e-05  3.6233471090581280e-11  1.0826622983993099e-05  4.0972864657320930e-04  3.1059263308261606e-04  2.4723596569153504e-04  3.9699351771724109e-05  2.1144219875856153e-04  2.2130094840353194e-04  4.2812217466272264e-09  1.4904760378950659e-04  8.9475926183922742e-09  8.4465126889911788e-10  4.9233277953400267e-05  2.4846347163252432e-05  1.5866133039269269e-04  5.4772004326257170e-12  5.8912338516619043e-12  1.0367162741746090e-04  1.3917172758890097e-04  1.3999064025824824e-04  1.0566745295707566e-11  1.1176184334944855e-11  1.0355704535913341e-11  -3.0936665766654750e-07  1.9909837409818305e-04  -1.6037030600364042e-09  7.2507069627326879e-12  7.0993892720876053e-05  1.4081864897843397e-04  -5.3758385058454119e-09  -2.8318607391280230e-11  6.2832446922859839e-06  5.1615206409901076e-08  2.4662257535618296e-07  1.7541842533695426e-04  1.7016176860112534e-04  5.7771741857527714e-04  1.8300326337985739e-04  3.4564567803959505e-12  4.6840835523070330e-11  7.8745407144805012e-10  4.0526261785751420e-05  5.5131788871633596e-05  2.0295286598791569e-04  1.9556465345256648e-04  2.2596264709289233e-06  2.4049813698100259e-05  1.6166457676016713e-04  7.3455630481589563e-11  6.5861759868266075e-04  2.7760799018420771e-04  3.1068645628435661e-04  1.3425339571181170e-09  -4.5446414202218604e-10  2.1056092909720630e-07  2.1730712233568707e-04  2.3231589254473064e-04  2.1914503553370259e-08  2.4600461540649955e-04  3.7565614566533058e-04  7.4728191908018604e-05  1.6153752550691154e-04  7.2764287165059098e-11  8.4109722340802411e-05  2.2547129182180480e-04  2.2593849388450945e-04  2.6858732720147490e-06  2.6562272893088027e-06  5.0838984136004548e-04  -5.8188176962264217e-11  6.7791492143992236e-07  2.1654507411835802e-04  -1.6072369347021974e-11  6.8860425931479788e-06  3.2501583332906271e-04  1.0638347419915096e-04  7.3957621677059410e-05  5.2977840799925879e-04  6.3409130113666122e-04  5.5905341904607226e-04  1.0279105307705110e-03  1.1679194687568079e-09  2.1916592087450104e-04  2.2639194542203048e-04  7.6761663038325810e-07  1.6553533698040409e-07  9.6304287641897651e-05  6.8709606976436718e-05  2.9192800828184153e-05  5.3081755543617154e-05  1.0756495674386578e-05  1.7591874504696287e-07  8.7762466790535144e-05  8.9619587572350116e-12  2.8855026495450381e-04  1.7391449552852192e-04  2.2601155180987110e-04  2.5408436526212200e-04  2.2441127105900176e-04  1.9959233849116365e-06  1.1842429342644866e-04  3.9821385169957221e-04  3.2289866564448263e-04  7.0709680943020805e-05  1.1401227745308684e-04  6.4758911152693142e-04  8.7823809086915117e-05  3.1453861354883988e-04  2.0835710979817757e-04  2.8748833624983996e-08  4.9359250295945701e-04  3.5465837493222881e-04  4.7149581607031131e-04  2.4691010494580078e-04  1.7518651288588033e-04  3.8929267528797805e-08  3.9001453461454854e-04  4.0313747189166758e-08  2.4497527473654806e-07  1.2211503024431967e-04  2.9726654326907835e-04  3.6879789110101494e-04  9.1388221403661152e-05  2.6000876795467852e-04  7.7922475316286933e-12  1.9447650745293801e-05  5.1356842438342266e-04  7.3831813354704838e-04  2.2767339939060499e-04  1.9202585320606348e-06  3.7713762871764398e-07  4.3611558731643848e-04  2.6971985340695390e-06  1.4715110007505210e-04  2.5469414761098726e-04  6.8240760762204459e-04  5.8150983253353127e-12  2.9134222672702271e-06  9.2225608891421155e-06  3.3332887203219127e-05  2.3548161034506104e-11  2.1832699657793906e-04  2.3010688525341159e-04  5.0670718319999945e-05  6.9375147326336518e-04  4.9911465676044707e-04  5.4544187302731659e-05  3.9432288765805124e-04  3.7511780111828592e-04  2.0237884349749680e-04  2.2844120573515297e-04  2.9656516884944218e-04  2.7515017310008146e-04  2.0441153550213172e-04  1.9777876493833789e-04  2.8455706949051301e-04  2.1624133077003413e-04  -6.3068122276360866e-10  4.7614188083007502e-04  7.0751533005599971e-05  1.0010044238745392e-04  1.0986922168492247e-11  1.1030018903737143e-11  1.7952698268829719e-04  -1.6525631202048569e-10  3.2144382485743743e-04  -3.6565898249724489e-10  1.1507717546581147e-10  2.1302054698680320e-04  2.0641072744890298e-04  -5.4747230528789343e-13  4.9470084718778568e-05  5.5691209507547127e-04  3.0520635558581782e-04  8.9973699145205892e-07  1.9569162192190982e-08  9.3297244262542822e-12  4.4671837909140592e-04  2.2765308212150762e-04  2.0156348112176171e-04  3.7461352644313198e-05  1.3594940204539044e-08  5.8476160489677348e-05  2.9032270675337113e-05  7.8160919776789966e-04  4.7696963989382629e-04  2.3661726895986320e-04  4.2460728648178027e-04  6.8177168910643708e-08  2.3004717048820530e-04  1.0608172177719935e-11  1.0327810899353971e-11  2.4326532012835164e-04  1.1198672583661571e-04  4.8984996343158591e-04  7.7613979783070828e-09  7.0601015008040044e-04  5.5188228163403727e-12  1.6808373463064720e-06  1.0135598023323978e-05  1.9485405647068984e-09  5.1886845864175642e-09  3.1993683395368378e-10  4.2760229035821091e-04  3.7231737311465370e-04  4.5664214999399519e-04  4.8151776798871514e-09  5.2264248592394824e-05  1.5870022931519355e-04  9.8736235356680106e-05  1.0228592636801263e-04  3.9194482155823732e-04  1.0640225712572837e-04  2.1557563326110751e-05  8.0010315396547018e-10  5.1721095467019602e-04  1.4221715704017905e-04  2.9863412381187404e-04  5.6780001863523468e-09  4.7540760826176809e-05  9.7867767655963217e-06  1.5756791512076579e-09  5.6389384166843568e-06  1.0118486123825566e-05  2.3545270688496927e-04  1.9027224293476728e-04  1.2456290816184064e-04  2.0748223356053058e-09  2.3024239806303086e-05  2.1249135123862459e-04  -8.9356448406577538e-10  8.5241944459937539e-12  9.6211723060438271e-12  7.6946549607331493e-05  -3.6042370706973017e-10  2.0256750744343594e-04  2.0746655298424735e-04  1.5058963603238643e-06  1.1428899531086586e-04  1.2427165570871917e-07  2.5504456105736366e-04  4.3373813356182493e-06  4.3117325221926124e-04  3.7322580732871290e-06  2.0523635229105256e-04  1.7804529487616493e-04  6.6029137814371407e-05  7.0013173604836326e-05  -3.4513694549108032e-10  3.6714739620818910e-08  1.8532407854802594e-04  2.5119543773103208e-09  1.2658181704693056e-04  2.1699939171120048e-04  9.7225489045339349e-06  3.4551886012018090e-06  1.1738922253725911e-04  1.6582803361215548e-04  6.9093684934430215e-05  6.5753720038027542e-10  -2.7655961859852618e-10  1.1788617023445281e-10  1.1923124976967091e-07  1.7510375711050347e-08  3.4008660365487721e-07  1.5520080654545309e-05  3.5764269465968255e-05  1.0977991782150589e-05  4.5203490683704419e-12  1.7604434152766106e-04  6.7442633584051645e-11  2.5872394621979147e-04  3.0778454484055702e-04  7.2189563532551892e-06  2.2781846635405376e-04  1.4187862481000114e-04  4.3624712600375485e-05  3.2364968454925064e-05  6.7693828495438545e-05  1.7611510970673028e-05  2.3708116855680684e-05  7.5998635509507895e-12  1.2579614147710882e-04  2.8651859365999441e-04  6.6342716935215972e-07  1.1875683296112072e-04  1.0831962162075353e-04  9.1875930437276213e-12  1.8156928964239656e-05  4.0759997015927217e-04  7.7834635955903594e-05  3.2251458888751388e-04  5.4586973064874610e-12  1.5210975967221315e-04  2.2615088544767481e-04  1.1379143476698478e-10  8.7145731096107556e-05  -9.4958588129717908e-11  2.9701245374910061e-08  2.6571685852039766e-04  3.2725772090538702e-05  3.3692212858633589e-04  1.9372894998545827e-04  2.8691725230722481e-05  3.8423698585987143e-04  2.4456623164164596e-04  4.5192278331450034e-04  1.1533348760577627e-06  4.5360643518278581e-09  2.4821800760919715e-04  3.3924749804824944e-04  1.0866563830202732e-08  5.8914997733225961e-07  1.5181999987021602e-05  3.3485473947494042e-04  2.8352169034317933e-04  3.5206614515163648e-04  3.3922156945645119e-04  2.4146678121079589e-04  9.5788321870877050e-05  3.6634105472101249e-07  5.1439100754094746e-06  4.9995699225118945e-07  4.8005094518035767e-07  2.2664446852074281e-04  2.0278971180693360e-06  -4.7845030827293712e-10  7.1696691433752404e-08  3.4882916797760094e-05  1.4938769874870385e-06  6.2734072183645274e-08  1.3227249341132034e-08  4.2555699664975497e-04  4.9022090109197369e-04  6.6089570428658746e-05  2.2859444056585765e-04  5.7988146040675099e-05  2.5257681751090073e-04  4.1468761446861462e-07  -4.2018979445198198e-10  6.9049183540461200e-05  3.4794715490863966e-11  5.9423480263303339e-05  3.4739859402620535e-04  1.3193376233228417e-04  5.4421006058943765e-05  1.0494600593759287e-04  2.5085687704494662e-06  1.5484882834977868e-04  1.1058448153141687e-04  -9.0488330660733427e-10  -1.3143749930280354e-09  1.2684848396272576e-04  -2.0488516953623149e-10  5.7287037798211503e-05  -2.6634918246025163e-08  1.4266392129105257e-04  5.0476850958535700e-12  1.6779164463841245e-04  3.1807839014381663e-04  2.7206084698989878e-06  4.6636342774867354e-05  3.3544514616465939e-04  7.8406789920900703e-08  1.0386557968302068e-04  -8.8202738454902158e-10  9.9609496950917131e-12  1.9227385434392830e-11  1.1313987174335323e-09  7.5828350992561432e-07  8.4951977343557142e-04  2.1678489076008961e-04  1.4563614381976568e-04  1.7341588599861630e-04  2.6126231104840644e-04  1.9300117909868910e-04  -3.2974643653672185e-11  2.5188577538184784e-04  5.0846805372594425e-04  4.2717303994731871e-04  3.7208136756766522e-05  1.4131721266713492e-06  3.7848898749804232e-07  1.4370774572551408e-04  2.2624338272031659e-04  1.0421275115125079e-04  4.1886177905207969e-06  -3.0675323638115530e-10  4.6868382411876300e-05  5.7556925974793976e-05  7.7274345763267362e-05  6.4192341447798229e-05  5.3611780942664484e-05  7.5940778479359922e-05  2.1911721323352308e-04  5.7516301968391843e-05  4.5466698478126438e-06  -1.5782038486450200e-11  -5.9849340348635676e-11  9.6598084662708112e-08  4.4625375766457187e-07  1.6772256005964883e-06  2.2632934762175784e-04  2.2629083559486015e-04  2.2592269781332330e-04  6.6355392782939553e-05  2.2275291127092252e-04  -5.2028035704632005e-10  4.0086464805073223e-12  1.8213685111383108e-04  5.2079672292982278e-05  -9.2176342163931115e-10  9.9467226122618963e-05  3.9897222482117439e-12  -8.0004014719028729e-10  -1.2372839339418397e-10  -7.7218347529836172e-07  1.0313297089242025e-06  1.1387646365430498e-04  2.4401912876538653e-05  2.2303074740203555e-05  2.5614741968756043e-05  2.2406318988174055e-04  8.9928631664783356e-05  1.9945691309209093e-04  9.0459050885585461e-06  2.1787082523498651e-05  3.7377723659837304e-12  3.9078078950327615e-08  1.8138311942973170e-04  4.0816348734724537e-04  6.8713962049537518e-05  2.3017021289409572e-07  9.0922817031865647e-05  1.2706237242214130e-04  5.6567794055185862e-04  2.6481912850734378e-04  3.3017088171583782e-05  -7.7513862463132245e-10  4.4229699745997975e-04  2.9394843518576593e-04  1.6899464947322433e-04  5.1697643185197306e-04  1.7294546286918894e-06  1.7419413533274793e-04  2.2453594528954951e-04  2.2250682427222369e-04  2.2024778410523061e-04  2.2614391481983121e-04  4.1447782515642372e-04  1.0553173269899703e-03  3.4042711833319990e-07  3.8752916884041497e-04  2.3673317274590375e-04  2.1652055351785951e-06  5.4364536815041016e-04  1.6387620115326419e-06  2.2336579632602151e-04  2.0931648173820285e-04  3.9890853399119296e-04  3.9524708709489639e-04  3.4580053782262373e-04  1.9886231462691183e-04  3.0069390584300024e-08  5.9602505477987435e-04  5.2537666737718339e-04  5.9488411988987002e-11  8.5751019720528445e-08  6.6119463664840743e-04  2.8873851788150681e-08  2.4581081735848571e-09  4.1048474776411579e-04  1.1717877815394102e-05  5.0430088275700318e-05  4.7871066509391157e-05  4.1963208137326782e-05  1.8831713409583236e-05  2.2809901428518615e-04  2.2916542164422066e-04  2.8828708187218191e-04  2.6983067303050244e-05  1.4553360346619568e-05  1.9989027196311105e-05  9.3330551377939264e-06  1.4092039338073424e-04  2.2538304147393757e-04  2.5048887651927068e-04  2.1111096691694772e-04  8.1734681600659147e-06  1.9827755808331124e-04  1.9179304267291327e-04  1.4040636723510947e-04  2.2298758133598372e-05  2.2030639485867344e-08  3.8045145551939423e-09  1.5788564612776151e-04  2.5737497945995796e-04  2.2278022618433497e-04  2.2436501680485181e-04  2.1522731303003483e-04  1.4296815315319023e-04  1.4045238707835630e-11  1.3238430091661933e-04  1.3990587912771519e-04  1.2093217389805370e-04  1.3027863242774451e-04  1.0975548235719680e-04  1.8916279576105399e-04  1.8577122378204234e-04  7.2537748520687275e-12  1.3601780877598989e-05  2.0313795036583985e-09  5.2663682492531413e-06  3.6531235301219745e-04  3.4363769650066914e-04  2.2998197206463176e-04  1.0502851119478133e-04  8.2500943309335920e-12  1.7625578684478410e-04  -1.5367405896522630e-10  1.8471085822874787e-04  7.2981101479862817e-04  3.4900134871898497e-12  1.6075159233594794e-04  1.8719585874708695e-04  2.4263773620499456e-05  5.0299138662716874e-09  6.3086578285935534e-05  2.3467251124003542e-04  4.3214720798049732e-04  1.6837203898228709e-04  2.5694597717756891e-04  3.4795747395902971e-04  2.9405259847422981e-04  2.1331069020144548e-04  8.0524365589332356e-12  1.4745214859914420e-07  4.6259686164670983e-04  2.6767459226989716e-04  2.6246601964053989e-04  1.0221927569846832e-04  6.7814568452810565e-05  6.9164944293913730e-10  6.1101536816489247e-05  8.4453295736479246e-09  8.4406472539857512e-12  9.7539473853595104e-05  1.4598196337577127e-04  -8.7970238944607408e-11  6.4220255198202826e-05  1.0938994178048369e-11  3.5859605083975871e-04  9.8255062238783450e-05  1.1819038788971434e-04  1.3610