<?xml version="1.0"?>
<VTKFile type="UnstructuredGrid"  version="0.1"  >
<UnstructuredGrid>
<Piece  NumberOfPoints="6486" NumberOfCells="12696">
<Points>
<DataArray  type="Float64"  NumberOfComponents="3"  format="ascii">0 5 0  0 0 0  5 0 0  5 5 0  2.5 0 0  5 2.5 0  2.5 5 0  0 2.5 0  2.5 2.5 0  0 1.25 0  1.25 0 0  1.25 5 0  0 3.75 0  5 1.25 0  3.75 0 0  5 3.75 0  3.75 5 0  3.541666666666667 1.458333333333333 0  1.458333333333333 3.541666666666667 0  1.875 1.25 0  3.75 3.125 0  1.284722222222222 2.326388888888889 0  2.683189655172414 3.767959770114943 0  0.9375 0.9375 0  4.0625 4.0625 0  0.7252209595959597 3.026357323232324 0  2.763480392156863 0.9129901960784315 0  1.875 4.345238095238095 0  4.345238095238095 1.875 0  4.192708333333333 0.8072916666666664 0  0.8072916666666665 4.192708333333334 0  3.368055555555555 2.326388888888889 0  0.6837606837606839 1.738782051282051 0  3.285485245626782 4.324328415208927 0  2.551239698778062 1.693130150610969 0  1.827256944444444 2.868923611111111 0  3.464875022477093 0.6813924607921316 0  1.942880513719175 2.059558626187995 0  3.04563492063492 2.971230158730159 0  4.375 3.4375 0  2.13639445139758 0.5994472256987903 0  4.272228422619047 2.606956845238095 0  0.625 0 0  0 0.625 0  5 4.375 0  4.375 5 0  0.6400043240752655 2.384646170113389 0  1.347691225855598 1.660875475110776 0  3.515783617857982 3.723905460714006 0  3.125 0 0  1.875 0 0  0.625 5 0  4.375 0 0  5 1.875 0  0 1.875 0  0 3.125 0  1.875 5 0  5 0.625 0  0 4.375 0  3.125 5 0  5 3.125 0  1.489644181965304 0.6007147273217681 0  2.054597701149425 3.742302955665024 0  2.662520990197781 4.39452575763237 0  2.415835363784578 3.165530021913244 0  0.8679986894865213 3.602373689486522 0  1.267459753787878 2.886186079545454 0  4.099702380952381 1.365327380952381 0  1.316964285714286 4.438244047619047 0  3.7915135293491 1.959691594758709 0  2.875141124191255 2.118761176511833 0  3.00418010501169 1.397414179299248 0  0.4081721322167092 3.410647930198662 0  0.4166666666666666 0.9375 0  1.014190407998288 0.4422301359994293 0  1.383260571305984 1.162718286082048 0  4.53125 3.90625 0  4.453125 4.453125 0  3.772848162504192 4.48678272083473 0  2.8125 0.404329517041716 0  0.4538690476190476 0.4538690476190476 0  2.305461739347387 1.04517007574828 0  3.771263799175824 2.624190260297553 0  3.229617768018734 1.809956994202883 0  3.780190884441317 1.025307111692601 0  4.646337365591398 0.9375 0  4.537623451379149 0.4609485750426037 0  1.200477888421151 3.934852888421152 0  0.3536626344086022 4.0625 0  0.4623765486208503 4.539051424957397 0  4.0625 0.353662634408602 0  4.560525106689535 1.390989100915847 0  3.958439078571988 3.619844539285994 0  4.672619047619047 2.1875 0  2.1875 4.672619047619047 0  1.862808494877602 3.325947624431087 0  0.3268135998175443 2.8125 0  4.674181280189791 2.8125 0  2.283233994935276 4.138623547175983 0  0.9375 4.677879119362977 0  3.08488061581743 3.469889594488945 0  3.113427375573758 3.913955730709506 0  1.652847799068813 3.950848935641292 0  2.932652662909449 2.550542739521724 0  3.311350648514189 1.088831994878698 0  0.6770833333333333 1.295851139601139 0  0 1.5625 0  1.047214787840024 1.96818092308125 0  4.183331482095785 3.03958703580843 0  3.4375 5 0  1.071307777252521 3.246275861010018 0  0 2.1875 0  0.386576856303419 2.03125 0  1.713862716483534 2.439783116849799 0  1.775396256975935 1.665976816304977 0  2.231236976948428 1.443917394671254 0  2.373900732409897 2.086930260150635 0  4.114918237574474 2.221646174618671 0  3.661302567757379 4.099620139144836 0  3.378215938602977 2.734494874063393 0  0.9842097536079312 2.597286741306247 0  1.642795138888889 4.672619047619047 0  4.0625 5 0  2.099458800960004 2.567446522665629 0  2.616202751603346 1.297895893940078 0  5 4.6875 0  0.9937554350075428 1.512592975947215 0  2.8125 5 0  3.002695327068194 4.614055254615477 0  3.205627424097207 0.3852436382721472 0  1.678616581261621 0.927556612265266 0  3.365326698305438 3.196943731162083 0  1.554834936170314 3.120009882655813 0  3.108408340729323 0.7797187795784133 0  3.684368918102174 0.3728877601163941 0  2.716214835303553 3.39276351922003 0  2.37718583984784 3.551973401560441 0  0.3750662445374837 1.52191994866787 0  2.679073487930202 2.844160731602957 0  1.557635869750078 1.991068682985722 0  1.812595698561088 0.3839273018252746 0  2.512014721281916 0.6320641118792227 0  2.1875 0 0  2.349973454443689 0.3189980586887866 0  4.6875 3.59375 0  4.636052949022233 3.178355898044465 0  4.6875 5 0  3.345485909784306 4.665765449101383 0  0.536727472389443 3.749603193819277 0  4.349541499640203 1.116201826262156 0  2.886559045931982 1.774013674579691 0  0.6770833333333334 0.7142857142857143 0  1.5625 0 0  4.120842096538671 4.628726497527622 0  2.176157474177018 1.793470423744689 0  2.175650736889416 2.909863021769539 0  4.036616464259081 1.709699085170981 0  3.887974623473683 0.6492597046022868 0  3.4375 0 0  3.70675699592552 2.289666624772415 0  4.697265625 4.208984375 0  2.815177577303495 4.085937578239174 0  4.672619047619047 1.730733296184288 0  4.6875 0 0  5 0.3125 0  0.3125 5 0  0 4.6875 0  0.3276089296588581 2.484526834811734 0  0.712433309515852 2.065138854645612 0  0.6376435912223634 2.711473454001295 0  1.184991292170422 0.7222504400947201 0  1.31884329779317 0.3206944232264773 0  3.683609198994263 3.44428698533042 0  0.3125 0 0  0 0.3125 0  4.231797269642997 3.789141808928991 0  1.564375596050781 1.425998687184973 0  2.007640894175573 0.9032106925568466 0  0.955125897558294 2.276666098587227 0  1.43898735721003 2.611310720271951 0  1.954491523717513 4.040700257877075 0  1.752947649777421 3.652439445419346 0  2.509575750247638 4.678021307664052 0  4.687194709705067 2.499965519538002 0  1.5625 5 0  0.9375 5 0  5 2.8125 0  2.1875 5 0  5 1.5625 0  5 2.1875 0  4.0625 0 0  5 0.9375 0  2.8125 0 0  0.9375 0 0  0 0.9375 0  0 2.8125 0  0 3.4375 0  0 4.0625 0  5 3.4375 0  5 4.0625 0  4.010848109290813 3.306446973933037 0  0.3077461147713075 3.119700563473354 0  4.6796875 4.6796875 0  2.333079012424948 3.845757959077508 0  0.7829771267899832 3.317744656243421 0  1.159100632608513 3.532487125138763 0  0.799066251840424 3.893573750162776 0  1.57326499580282 4.255438189102632 0  0.7309366047093668 0.2991402264438908 0  0.3054777494262156 1.223275888123843 0  4.027475154280377 2.78211326942427 0  2.35270874745988 4.426658168476266 0  3.474236283732569 2.021154281686229 0  4.401414236174444 2.329446628171927 0  3.39403781747337 3.987097102903034 0  1.077524329801934 1.214100792470484 0  4.065611571711903 1.066085524514197 0  2.165399002716117 3.335637450367864 0  3.007639563081306 1.093684039371638 0  4.030818285732145 4.351883315180857 0  3.504115222530889 1.739284194222036 0  1.224503368215566 4.712091441401919 0  3.805634204685714 1.321528442399996 0  4.319233123479386 1.573547993867769 0  1.024007670021325 4.394604704797005 0  3.776400432023095 3.839003324979723 0  2.991819819453308 4.320567175146181 0  0.9782797534072181 2.886406017887129 0  1.763835134082104 0.6602345487826022 0  3.765182288741625 1.631193038541544 0  2.267959593989681 2.345053543725764 0  4.412434895833333 4.168294270833333 0  4.4072265625 4.7255859375 0  2.791493971314009 3.11210833271929 0  3.408766223032414 3.469500900677365 0  1.915147569444444 4.725484476461039 0  2.070301968506271 0.2605666686358055 0  2.767932250651506 1.530295992695836 0  3.280065043173439 1.364863281105779 0  4.45101570110842 2.974157152713635 0  3.521928862999512 2.96990445010402 0  2.552921961347576 4.008414007169315 0  0.2682955376854191 3.657555015841003 0  3.084522868361304 2.310593316718068 0  2.669255823227708 1.939379494498064 0  2.615884629473921 2.238841231570381 0  1.405652091971449 0.8877813821442277 0  3.25151486618811 3.68536115104276 0  1.963741569810629 2.331207252264507 0  4.017297980292599 2.486269171379106 0  3.869168920841219 4.748188103831625 0  3.596868753579134 4.77342723825056 0  2.41262958240343 2.764128584995838 0  1.266750578673391 1.404747710001619 0  1.559243962241121 2.85146506328516 0  3.128799423834764 2.052081657715259 0  0.6770833333333333 0.9778025793650794 0  0.2083333333333333 0.78125 0  1.978224492765132 3.087074731032578 0  4.051448850909273 1.969392119104174 0  1.320577095006813 4.172234780971559 0  3.214261103850064 2.534397293281829 0  0.2635729089754111 1.779234736680035 0  3.510775680035133 4.460728640112889 0  2.603081405968802 0.2432579385496493 0  2.866341315154884 0.6662105505481998 0  3.000919221100777 0.2270278495648781 0  1.298858304121393 2.05917319923859 0  2.020292299736597 1.589794568392338 0  0.7401688396476035 4.470780315741533 0  0.6721783535561408 4.733125588707921 0  3.753712482075402 2.874301339727514 0  3.557348205914658 2.491958694539413 0  1.094565978195436 0.2011034254079851 0  0.9338148378011396 0.6833568465908735 0  2.945530578578538 3.701798332963805 0  3.111707186654356 3.216904195825605 0  1.341791111822685 3.293123262233967 0  1.632939924064587 1.184895891095613 0  0.6335477978936732 3.517393619499591 0  0.5576014611130192 3.210998966942492 0  1.564344196470102 0.3630498725895039 0  2.75362450242839 4.626680495816594 0  3.571304405229554 1.192452351107437 0  3.522934592621944 0.9359134489437148 0  4.453125 3.671875 0  4.765625 3.828125 0  1.055906321410838 4.14310472322957 0  4.795146539102229 0.46875 0  4.767156345199235 0.7178596932040019 0  0.2048534608977711 4.53125 0  0.232843654800765 4.282140306795998 0  0.5393715189906129 4.270810883024032 0  4.329922600274667 0.2750645887059072 0  4.275515096738972 0.5448389557295173 0  4.477747423652795 0.7252838358993123 0  0.2002829820452772 0.46875 0  0.4352678571428572 0.6956845238095237 0  0.5007241582667088 0.2123388122114133 0  4.672890923830735 0.2500902110494848 0  0.4308009280819452 4.783624996516437 0  2.104871305393774 4.438653689007242 0  0.2274454167838428 0.2274454167838428 0  3.446466574593436 0.4359605369011901 0  2.12354112127588 1.217588426759619 0  2.309175236825235 0.7888355970690434 0  2.556178570281936 1.054299163237582 0  0.578683248637
[...]
<PointData  Scalars="f_16-3"> 
<DataArray  type="Float64"  Name="f_16-3"  format="ascii">1.6979896092510382e-49  -3.1100616211966574e-04  -2.5052102572783661e-49  4.5974553241625850e-73  2.2670556018664758e-22  5.4381400367457084e-57  7.8610363730117037e-58  -3.2487747159664999e-22  1.1839672729309868e-31  -5.9680680682784195e-10  -6.3395092486655903e-13  -2.0608360282659920e-53  -1.4895317899064282e-38  3.8894193317158944e-55  4.5245881534558905e-35  -2.6869119780829274e-64  1.1041466404702347e-63  1.9936305204020027e-37  2.6104523855874081e-36  1.3672124747931982e-19  -2.9504626667608880e-47  8.1357163691641418e-22  -3.2159801236164774e-45  6.5384149053915044e-10  2.8576551349132391e-59  -1.6723146930046568e-29  1.8783887676732165e-29  -1.2262793245666978e-45  -4.5724005509907993e-49  7.9656428785615722e-44  5.2418601587247715e-43  -5.3574357665987518e-39  1.0674614746047591e-13  1.0005446931146255e-54  -8.5102160430016892e-28  8.2512940721795526e-29  -2.2795418331196473e-38  3.0104359565380582e-24  -1.1128705366732772e-39  1.6353195172829002e-55  9.5402080256220072e-22  -4.7263804666042216e-50  5.2073841573304337e-08  -6.6762211637495339e-04  7.0934606852077043e-69  -3.3742672896978021e-68  9.9978087239865094e-22  1.6064436696956013e-16  -1.6998924591404701e-49  -4.3989324630450703e-28  -1.8571325679315434e-18  3.1834638241409420e-52  1.2950299599757820e-41  -3.7263601134879356e-55  -1.7530889031791738e-15  4.1050190929837602e-30  2.2215533943174555e-53  -2.8268781694162734e-50  1.0195643315628494e-42  -3.7497730058354717e-59  -7.5388595539783266e-60  -1.7415113688780606e-15  3.6861745255135563e-40  8.9587530055830246e-52  8.5861494870019387e-37  6.5003848115030101e-36  2.0613776655020556e-27  -4.2552029218542894e-44  -5.6607136513607906e-47  -1.6083496299509123e-43  -3.4112446396287447e-34  -8.6319482668760193e-33  6.7580577575847027e-35  5.8903017403187742e-06  -1.4135418214736704e-10  9.1206240779266782e-16  -2.4245700703350653e-61  -2.0998111595061173e-64  -3.6669795117982696e-59  1.0075666136981504e-28  -1.1945316231690405e-04  6.3353003147452629e-24  -3.3566897053499201e-45  1.0438364392479895e-36  -7.7252140552953245e-40  -1.2977305601873581e-49  3.4060250747130509e-46  -4.9938573045651078e-43  1.0067178170331457e-42  2.4619793694802135e-46  4.3919820142004911e-40  3.2024795967350354e-50  7.7799673054278404e-54  -2.9975251851438918e-52  -4.1635465716914890e-51  -1.6693877691693776e-34  1.5561970869753959e-25  -2.1859579353315491e-55  1.1601553765257981e-46  3.4363962949061283e-49  1.8782054447098088e-44  9.2107261373982154e-50  -3.1173227048627936e-40  1.0600396393441439e-37  6.8732704258260838e-35  6.2912896616838674e-11  -5.2644560655098270e-13  4.1382569619105735e-17  1.6503393317656258e-51  1.3143895022780173e-62  3.6353564318144273e-32  -4.1857237078936567e-18  1.0475527237239170e-15  -8.0448427169140353e-25  -1.9217340899671434e-20  -1.1105781584719230e-24  -2.2458098297714626e-28  1.0477732830457177e-47  -7.7437452861385624e-54  -5.9218972647832499e-41  6.5899094344452588e-25  -3.9427890671068374e-49  2.8604526899811776e-64  3.9536918847816414e-28  -1.5503560574670771e-29  4.2829507943169133e-72  -3.0862417330239024e-14  2.9509083012425116e-59  1.1509222660900153e-55  -4.1002439946148427e-31  -2.9800874972131202e-16  -1.3468502426982160e-44  -2.4873688821149818e-30  2.0353085044755229e-33  -9.2617059537317191e-37  -5.8215680253112158e-40  -5.4412873034322436e-40  2.6745240255847670e-10  -1.7460521629529306e-36  -2.5887171967873304e-20  -1.7933601984593080e-19  -1.7976219673792620e-25  7.9452904166965122e-21  -1.1830108214194806e-23  -2.3429172761568888e-60  -3.0230196007561557e-57  -2.7068986081306969e-72  5.8502069666030645e-58  1.6994393114319599e-38  1.5150044345593828e-47  8.8696939268051953e-31  -2.5154387187796114e-07  -3.4768237883897263e-15  2.4552400214175748e-62  3.0545687923703351e-24  4.6464360687279279e-32  4.7339093605616095e-45  3.3243927150391526e-41  2.9136298158557403e-32  -1.8096236878536276e-41  -2.6928193913887822e-64  5.2122453736537293e-48  -2.7099457571072240e-51  -7.5331984656681928e-45  4.1182801242880262e-49  -8.1858542436328117e-51  1.6570068516988722e-46  -1.4488582036016490e-21  3.3350401590446665e-18  3.1451888838535115e-25  -2.4769219338018247e-12  -3.9187337197048380e-14  5.3443517896967761e-49  -4.9254068694156598e-05  3.2091640388454377e-03  1.1156020775629984e-56  -3.9717088195913500e-17  -2.5701743928370353e-21  -3.7491897019702353e-22  -7.7315322993632739e-25  1.0367973062962951e-43  2.8635144872354897e-37  -1.7461732693609519e-53  1.7496740319837887e-55  -4.3217407185915224e-53  -1.2609405808426283e-52  -1.0511080169011260e-59  6.0640547485998528e-55  -2.3883965423476902e-55  -5.6006471815718869e-56  -3.5355479677023898e-38  -3.7184943294336290e-52  -7.3114034340834914e-25  -5.2972015019125135e-09  3.4947036221766402e-06  4.9618018067706894e-26  -1.4516478099861468e-33  -3.8321945379041569e-39  1.1785760203597911e-61  6.5138935062301531e-67  4.9215157005870040e-51  2.2371067552109403e-29  -1.7498596529897400e-68  3.0989883897449299e-43  1.0964516166323781e-32  8.0348222559464282e-37  2.4669923666807512e-39  1.6851937124236877e-45  7.0869881871021083e-08  4.3543720837409263e-08  -1.1653888262645007e-49  -1.5243462729997745e-50  1.8071928444359249e-38  -7.8785363468131398e-49  7.6084973259973134e-51  -5.5302658931085104e-12  5.0206324530075442e-44  -2.3570878334794667e-36  1.0101299844228245e-31  7.3754929524457856e-60  -1.7974339728284591e-38  -6.5904025683921139e-50  -3.1882843487354599e-41  -1.2555441559406685e-46  -2.4608137960566613e-45  9.2040513661032812e-53  -2.6798656015647888e-51  -2.1301186809884428e-28  -3.0728188547571816e-17  -9.7731308840594406e-42  2.2050050968276734e-28  4.7998385500565766e-62  -4.3592323158612621e-65  -1.3934619238873164e-39  -8.5738388654548019e-47  -1.6951495168931807e-50  6.3341706975527286e-21  -1.2846666005509203e-29  -6.4797956041012954e-37  2.0841069328518980e-53  1.5444213726578926e-44  1.0197915850804992e-45  3.6723522311559763e-37  2.8108222851083683e-36  3.2239414963641795e-30  4.8061036215989579e-32  -1.3967594355010295e-13  -1.7234876037897039e-47  -6.2079175260812368e-25  6.1423831746667857e-46  -1.3285910122937034e-61  3.7668744182101063e-60  1.7192459946132103e-33  5.2340015212476363e-14  2.1785470262829157e-28  1.1942362804075651e-35  -5.9089158602568278e-08  2.5033385112465030e-06  2.5774439977026972e-35  1.2364003482802614e-45  2.8707353001959732e-43  -1.0916799143454290e-39  4.3285199385806124e-14  -2.1949661534219154e-57  1.0834361346123195e-25  2.9546804029323770e-30  1.4648673798442378e-28  -3.7367799842611711e-21  -4.1309648291456210e-22  4.2485021815159029e-48  -6.1038388998698721e-50  7.1568272326111917e-46  9.4585373595892286e-43  1.6677080678467144e-10  2.6885825958282862e-10  1.3000678241411751e-45  -4.5051061852331482e-42  7.8241425067933512e-33  -1.4562305656936401e-16  8.2866304782273356e-36  -1.1194695195870413e-31  4.7626682022191044e-16  1.8583585331598106e-53  1.6309584638729877e-38  3.0563981560269395e-39  3.4100637338361621e-59  3.3789813655792657e-63  -6.6869737125277701e-44  -1.2183719930288003e-47  1.4614760027120904e-48  -2.3074623338644820e-45  3.1485484234582043e-42  -1.4989458235076005e-44  3.3963195385877066e-42  1.1181938390076379e-43  -2.8522023860431917e-45  1.9317525404973331e-02  -1.1860300452754093e-04  9.8780102631496370e-07  -5.3210082948381286e-45  1.7354858899144765e-49  -6.5217104866837963e-49  -4.3934144878322685e-03  5.3600890610844362e-35  -6.9856480543164259e-22  -1.3966906871794547e-24  1.1796602296701483e-26  -9.3032641984300659e-42  2.9451407436346766e-42  -7.6425142351024698e-23  1.8860991974029187e-38  -4.4854262710113266e-37  2.6809765458651008e-52  7.8887300712265683e-54  3.1038962972934658e-67  5.6516915378853101e-12  3.5708783200678034e-39  -5.1117455238721272e-39  5.4186545841681634e-34  4.6575175454264252e-54  -6.0074820727784276e-40  -7.3810446050447427e-39  -4.5518681405344697e-15  2.7438843338787938e-33  -2.6095027251265247e-37  -2.6975366241583521e-46  2.3926247316622089e-17  1.1445184016971820e-51  1.0097710525967193e-47  -1.6830163230185290e-19  -5.8744644426309453e-54  9.2591242476185186e-12  4.1107223631886249e-25  -4.3316511323141147e-55  1.4492550798251263e-55  5.7771594924932565e-42  -1.7890937158208816e-55  -2.1568599329023126e-28  3.4441756943366273e-25  2.6538719968044233e-57  4.9513664177620855e-52  3.2731755317776490e-22  9.3904499382456812e-32  -6.6388813799137333e-37  -2.0267993808517646e-57  1.3881564823351323e-34  2.0123482619273787e-60  -4.8154724060221086e-52  3.5401498802843906e-34  -1.3108889295780968e-51  1.8522489811862873e-27  -2.0703208799450724e-11  2.3581348377615413e-10  -1.7871961875984385e-08  -2.7101825254622856e-36  1.4559859711475941e-31  -6.4248713024606309e-20  -5.2857377135886757e-57  7.6185072676800406e-55  -2.3126526438480018e-55  1.2196558578530995e-48  3.8939143818148282e-72  1.7084524788932889e-49  -3.8390994303957003e-51  -1.2972282625979329e-29  -7.6828266113540139e-66  4.8755821142333025e-33  3.3886376774507312e-53  2.1815270289117511e-43  5.4214410541788216e-41  7.6722121013922382e-35  -2.0819768593812361e-27  -1.1068103172918180e-08  -1.5537844274348265e-61  5.8857339660060329e-42  2.0124262137338135e-27  -9.2201534534016899e-28  -2.5998883788306547e-56  -8.5349789355451559e-18  -1.2558932423163614e-19  3.6952006269542797e-18  -1.2650190958477321e-23  7.6694589524089604e-42  6.7958816707676721e-27  -1.7501520209036007e-38  3.3516433132879226e-34  -1.8736984066350092e-43  9.2214505159607099e-46  1.5571067580814317e-51  1.3528649384404264e-31  7.8314129559664694e-26  4.0133813700881321e-13  -1.6900186244140758e-46  -6.8835007504892812e-14  -1.2183672123439224e-21  5.5902755548464442e-59  -5.3282540547243229e-37  2.3779460276619618e-34  1.6841293367899980e-57  -2.3170946865010546e-29  -1.2826933455899576e-07  9.6499227155865649e-17  -1.1543258639823551e-45  1.7461602715955394e-49  -7.8607825619115115e-37  -3.1711648708905376e-47  1.3722449481666013e-56  3.0731057916322405e-31  6.3797077427765205e-16  -6.1184466511631328e-47  7.4280745159567418e-25  -7.8238922369785974e-27  -1.5817120774055646e-25  -2.1239370330697647e-46  -1.7474876423444392e-34  2.7348290224937708e-30  -2.7124204987651513e-44  1.0445215500911110e-11  8.0900717781976284e-20  1.2252170348949175e-52  2.9742720197515469e-30  1.1668298395855927e-45  -6.5029733428563067e-52  -5.1462192636266759e-54  6.7328197605848440e-28  1.2053092961298656e-23  1.5932120175379869e-38  -6.2757136401163586e-47  -8.8594346961454253e-53  -8.3233220820575203e-55  -9.4896638590744734e-15  -2.0245914470410862e-33  -4.1216745585629908e-51  -1.7087662323145295e-48  5.1941125971465720e-41  1.7455723343916915e-25  -1.5276400596346821e-41  -2.3734440257284370e-26  -7.1786831195081903e-50  -6.2323452516389907e-15  1.1367241698153508e-50  -1.1572677762556978e-35  2.7022084536032155e-26  -2.1923770178928651e-38  -2.0505334119631828e-68  -4.7438313982891354e-20  -5.4349466209795103e-45  1.0918908240864965e-31  7.3585558079354062e-19  1.4817493014572104e-43  1.2539301041439312e-37  4.1208025267117162e-18  3.8517905229872007e-53  5.1987100709494306e-63  -1.1503642958482945e-49  1.2158096881039773e-53  1.1822671545117478e-21  -6.4860743173656025e-13  -2.1673384100646358e-31  3.8435897576185253e-14  -8.8593084862080682e-44  2.5059454996671745e-32  -1.0035607540612873e-22  -3.4111219030238410e-40  -2.8380779726911660e-40  -3.6634761764678021e-27  -3.8817063816426942e-48  1.4341309869448833e-16  -3.4367544865920146e-33  -6.9069843737749685e-10  6.1727124324379350e-38  3.8313095366265354e-15  -9.5502727257073502e-19  -2.6280768524914833e-23  3.3664949451268566e-28  4.4383537264589848e-27  1.5694645968636138e-41  6.5199566366961947e-43  5.7630473418887284e-39  -8.5559034459228146e-10  1.6887970264181782e-53  -4.2944222536205316e-61  -2.1261711211185299e-63  1.0416101210198622e-48  -2.2889316246817081e-23  -7.3125995664549550e-60  -9.7713478303095042e-16  -3.3433091817988565e-21  2.4164445412764104e-23  6.6003983505800731e-45  -1.9538318007845617e-29  -1.8914367759027229e-30  -8.8027722410234633e-54  -7.8375025575120691e-35  2.9448844511941175e-55  -5.4689272924604029e-55  -6.6326832933841043e-44  -1.5408558209373392e-56  5.0481499503404944e-39  -3.3604652061350428e-61  -4.4477419963387759e-44  2.6957804802024436e-37  -4.8523934451592670e-31  -2.9895957111897613e-08  2.9851147127139498e-52  1.9274457177517954e-50  2.6941670297276817e-52  1.7558369098953681e-21  -4.0396168412372824e-37  1.3944372006156028e-36  -5.4374157372855934e-40  6.8558297734515400e-64  -1.3000904105387677e-20  2.1751200623372426e-47  5.4796873616721857e-20  1.3566554402359891e-18  -6.8136062162826735e-45  -1.1513507483713444e-34  5.9856006590749977e-41  1.1132994442613612e-52  5.9432593944928147e-51  1.7440630853450223e-22  -1.8976298124085238e-16  4.9212534293988854e-33  1.6412194901586702e-50  -1.8339889002471179e-46  1.6286883678554975e-38  1.0166550497700133e-40  5.6753384721239487e-42  1.8835052163840152e-49  -8.1426245855626957e-40  3.8066566932226360e-57  -4.0396262579599858e-45  2.3342513790696955e-24  1.1746971880575366e-55  -1.5850783439993459e-47  1.6950664660323461e-44  7.3962439112709617e-44  9.0486510073488778e-64  3.1995022592878356e-61  -8.3695731039663886e-60  2.2504830999424873e-49  -1.2644242338022749e-48  3.8162976478420586e-44  2.8451654089594807e-19  6.0627094056626142e-20  5.0479654219947820e-36  1.2027127645134412e-55  -3.3785158741473418e-60  1.1307111056078199e-40  4.8924334663084504e-66  -5.0919149176009564e-65  -1.1637169057272392e-29  3.7200798176695048e-32  8.1440817533763656e-47  -4.4426506434089512e-44  -1.4099738327620187e-36  2.5412627333889033e-18  -4.0553691578676183e-51  4.0477246898159404e-49  -5.7313352469562261e-46  -6.7523026389587360e-07  1.3567911741961354e-06  2.3685978823634599e-08  8.3531389297751077e-41  5.0033920538850661e-47  -8.7735944764023938e-46  -5.3393688723809642e-14  -4.1103660114742776e-54  -2.4536532190149202e-47  -2.9257401485593731e-30  -5.2756586115625133e-36  1.0465119057858252e-48  1.1665399900001038e-70  4.5870590785723072e-40  7.1490316453927370e-59  1.0589901273645926e-65  1.3497165017025130e-12  -1.9981128389339667e-29  -9.2291068173817114e-39  -6.7852728593065487e-51  -1.0988932193004413e-53  4.9837282901184495e-36  -1.1232084878942253e-49  -1.6078440007616956e-11  2.7466392956004094e-34  -2.3701154701719119e-66  7.1784650300159965e-33  -6.2462616822732360e-16  -8.6154123593876484e-26  -2.1316012144492959e-46  5.7555860182912221e-26  9.9837064891345897e-31  -1.8689124441498042e-22  -3.8019747446142587e-53  -3.8187528655169120e-42  3.3044740410684352e-07  -5.8668656455885034e-25  2.1152382582014451e-13  -4.4977650473356614e-12  2.7053446978803629e-14  -1.7420789364360613e-10  -3.1180390343104902e-10  1.0327601585188796e-54  2.3325979074499571e-57  2.2738638201921146e-35  6.6970901484916271e-32  -6.2238143275818676e-32  5.4223104395477257e-27  -9.9739314833047904e-04  -7.1614154769711450e-49  -4.4438261902764002e-52  1.8053362398950778e-20  8.0086963970563184e-59  -1.8162204598539723e-48  -9.1911816070932665e-62  5.0725833129392214e-45  3.0078889810440655e-61  -1.5600461890169103e-23  1.0637015508275497e-54  1.6802838125921910e-32  1.0714107125650483e-52  5.2345536643063563e-52  -2.8299926309204948e-04  -2.6179837183985466e-01  3.6043299502502349e-58  -1.3016581446352911e-23  4.7606794225305974e-68  -5.2597514423687762e-03  5.2163616798329800e-43  6.4093163579675319e-50  -2.2378569518209176e-15  -2.1223854076757398e-16  -5.8133108142772747e-38  2.8746977672367086e-51  -1.0953536788929009e-32  6.7879608108990855e-23  2.3329049494810645e-64  4.4165221869338915e-07  1.1683427471489185e-42  -1.5845694234017119e-42  4.3639723828371821e-20  -1.3706000906210051e-49  4.9624547275204396e-10  -1.3045856227516212e-33  -2.6841991374333387e-45  -5.6224257818705543e-42  -2.4059258411260636e-39  5.0488572825996238e-57  5.4350641796234994e-33  -1.6983014981745168e-41  -3.5755416392699967e-26  1.4448353867100371e-42  1.7825626694065786e-48  -3.6953723467112833e-53  4.8384030070718237e-56  1.9818896903074450e-42  -9.9531309608693930e-23  1.6625054627379882e-56  3.6252386131565876e-58  1.6261562514234299e-21  1.7631195293487499e-68  2.1217477629709656e-52  1.0367580937302908e-66  -5.5482131871761206e-48  -1.0487667064893049e-51  -8.9100415453800099e-58  1.3328830797931489e-31  -4.6765675315425513e-53  1.4900120899137828e-61  1.1523377115356825e-32  2.6659342555810259e-31  5.2738546401260277e-56  -2.0558345601826003e-57  2.5099920229955250e-59  -2.0793466527069578e-17  3.4130366486923616e-19  -4.6757643286215977e-24  1.8471717096681075e-56  1.9571987550763629e-12  -2.2077609336545284e-16  -2.4891921040523328e-36  2.3515781401570539e-37  8.6178413599182173e-52  2.5951695147207322e-06  -6.0915036446587954e-45  1.6059409454397284e-49  1.6708553519945181e-10  5.2107707524398369e-27  1.9086524587295897e-03  6.1600471580748647e-05  8.3003337168213501e-64  8.1851176216571633e-71  8.6746999693419580e-75  1.1714733570748383e-71  1.6664865082629332e-27  8.4098076350554895e-59  8.4147503654139250e-08  -7.1731699780182155e-64  7.9137686468655475e-70  -2.3604653699543930e-51  1.3698892901482673e-40  3.5881792232150281e-50  1.1490702626926323e-34  1.1710649445336431e-52  4.2878710010063298e-31  -2.8305193434958118e-56  -2.6304597793205353e-13  -1.0488061281975770e-11  1.3135558513920220e-10  1.7913206082919438e-59  1.9641098417650436e-09  9.4028385857198606e-20  -1.3396206719201406e-09  6.1134913233316849e-43  -5.4457758864095988e-25  -4.4575461453567985e-23  3.1845174013265063e-45  1.5029114777631248e-27  7.3869335732739116e-30  -4.9946489634013486e-33  4.2358663333283006e-24  1.6500200650858446e-09  1.8314977409880006e-08  -8.6197429056543023e-51  1.1186314377392945e-47  -1.1004237389949866e-42  -5.5256275870380133e-49  1.8328837338611454e-14  1.3980087675863551e-56  -3.6086451258344661e-31  -9.2961508433284384e-45  -5.2193841085845240e-27  -5.4168679320945406e-17  -2.4318400531256742e-37  -2.4069186879013304e-41  -6.9932723799744216e-31  -5.4584587130431349e-22  -1.5188359434512242e-23  5.2054256245202873e-40  -1.5318143817941976e-52  -1.2197457710202505e-15  -2.3920074396638253e-47  4.0801921261222224e-48  -5.4228652102420262e-30  -1.4823526931592736e-38  -5.2873063567107469e-18  -1.8923886325399067e-42  2.8396366567184032e-14  6.8193209526401288e-56  -1.3307359582871823e-33  -6.7226331499938703e-36  3.9166898050902851e-52  -5.1141518044886486e-47  -2.6852162776040808e-46  1.1649905216814700e-49  7.2341470045837000e-49  -7.5644608157124527e-46  -3.4619519939453351e-26  3.3530881847048730e-47  -6.4981603386184703e-36  -1.4398591995881981e-27  9.5293671143302047e-38  1.8405812645569417e-39  1.4997452819370878e-55  -6.2402856732663354e-34  -1.3410494749381434e-38  -2.5752496151166594e-39  5.3218906081199554e-43  -2.3951064151505074e-44  7.4109480189860314e-31  -5.5510485495470450e-33  1.1913229695440494e-34  -1.4051687061511971e-26  1.6959896457189659e-44  -1.6849259818222336e-50  -1.0115577018550767e-52  -2.0317354440991579e-46  1.4843132010363722e-43  -3.7254331429866111e-47  -4.6501069366193026e-56  1.9116749706108236e-40  -4.6956596259985500e-30  -2.4202329194020171e-55  -2.5905317858861389e-54  -4.0231239402749950e-52  5.6075466459129514e-36  -1.4418904353507105e-27  -5.2518787431784214e-21  -4.5748141018801819e-40  2.8912368352944751e-39  9.1057402671635244e-19  -1.0286321105794585e-28  -6.6376055068420612e-59  -1.0662762560334672e-13  -2.3741208987257623e-38  -1.2263713247726903e-58  1.4462758093401760e-58  -2.8406738937706483e-65  -3.8802156625137340e-45  1.6761748214093081e-51  -3.8420349415726806e-28  -8.6068994879475659e-41  2.1426613084977533e-35  -8.7907940067363193e-25  2.5446032733241194e-50  -3.3928332409768867e-52  -3.4185228210678950e-38  1.0048099560477506e-46  1.7618229576655468e-24  -1.0838841567506235e-35  3.6599425410127975e-29  1.8163489066024634e-26  -7.0065