<?xml version="1.0"?>
<VTKFile type="UnstructuredGrid"  version="0.1"  >
<UnstructuredGrid>
<Piece  NumberOfPoints="6486" NumberOfCells="12696">
<Points>
<DataArray  type="Float64"  NumberOfComponents="3"  format="ascii">0 2.5 0  0 0 0  2.5 0 0  2.5 2.5 0  1.25 0 0  2.5 1.25 0  1.25 2.5 0  0 1.25 0  1.25 1.25 0  0 0.625 0  0.625 0 0  0.625 2.5 0  0 1.875 0  2.5 0.625 0  1.875 0 0  2.5 1.875 0  1.875 2.5 0  1.770833333333333 0.7291666666666666 0  0.7291666666666666 1.770833333333333 0  0.9375 0.625 0  1.875 1.5625 0  0.642361111111111 1.163194444444444 0  1.341594827586207 1.883979885057471 0  0.46875 0.46875 0  2.03125 2.03125 0  0.3626104797979798 1.513178661616162 0  1.381740196078431 0.4564950980392157 0  0.9375 2.172619047619047 0  2.172619047619047 0.9375 0  2.096354166666667 0.4036458333333332 0  0.4036458333333333 2.096354166666667 0  1.684027777777778 1.163194444444444 0  0.3418803418803419 0.8693910256410255 0  1.642742622813391 2.162164207604464 0  1.275619849389031 0.8465650753054845 0  0.9136284722222221 1.434461805555556 0  1.732437511238546 0.3406962303960658 0  0.9714402568595876 1.029779313093998 0  1.52281746031746 1.485615079365079 0  2.1875 1.71875 0  1.06819722569879 0.2997236128493951 0  2.136114211309524 1.303478422619048 0  0.3125 0 0  0 0.3125 0  2.5 2.1875 0  2.1875 2.5 0  0.3200021620376328 1.192323085056694 0  0.6738456129277992 0.8304377375553881 0  1.757891808928991 1.861952730357003 0  1.5625 0 0  0.9375 0 0  0.3125 2.5 0  2.1875 0 0  2.5 0.9375 0  0 0.9375 0  0 1.5625 0  0.9375 2.5 0  2.5 0.3125 0  0 2.1875 0  1.5625 2.5 0  2.5 1.5625 0  0.7448220909826522 0.3003573636608841 0  1.027298850574712 1.871151477832512 0  1.331260495098891 2.197262878816185 0  1.207917681892289 1.582765010956622 0  0.4339993447432606 1.801186844743261 0  0.6337298768939392 1.443093039772727 0  2.049851190476191 0.6826636904761904 0  0.6584821428571428 2.219122023809524 0  1.89575676467455 0.9798457973793544 0  1.437570562095628 1.059380588255917 0  1.502090052505845 0.6987070896496241 0  0.2040860661083546 1.705323965099331 0  0.2083333333333333 0.46875 0  0.5070952039991439 0.2211150679997147 0  0.6916302856529919 0.5813591430410241 0  2.265625 1.953125 0  2.2265625 2.2265625 0  1.886424081252096 2.243391360417365 0  1.40625 0.202164758520858 0  0.2269345238095238 0.2269345238095238 0  1.152730869673694 0.5225850378741401 0  1.885631899587912 1.312095130148776 0  1.614808884009367 0.9049784971014416 0  1.890095442220658 0.5126535558463003 0  2.323168682795699 0.46875 0  2.268811725689575 0.2304742875213018 0  0.6002389442105756 1.967426444210576 0  0.1768313172043011 2.03125 0  0.2311882743104251 2.269525712478698 0  2.03125 0.176831317204301 0  2.280262553344767 0.6954945504579233 0  1.979219539285994 1.809922269642997 0  2.336309523809524 1.09375 0  1.09375 2.336309523809524 0  0.9314042474388009 1.662973812215543 0  0.1634067999087722 1.40625 0  2.337090640094896 1.40625 0  1.141616997467638 2.069311773587991 0  0.46875 2.338939559681489 0  1.542440307908715 1.734944797244472 0  1.556713687786879 1.956977865354753 0  0.8264238995344066 1.975424467820646 0  1.466326331454725 1.275271369760862 0  1.655675324257095 0.5444159974393489 0  0.3385416666666666 0.6479255698005697 0  0 0.78125 0  0.5236073939200119 0.984090461540625 0  2.091665741047893 1.519793517904215 0  1.71875 2.5 0  0.5356538886262603 1.623137930505009 0  0 1.09375 0  0.1932884281517095 1.015625 0  0.8569313582417669 1.2198915584249 0  0.8876981284879677 0.8329884081524883 0  1.115618488474214 0.7219586973356271 0  1.186950366204949 1.043465130075318 0  2.057459118787237 1.110823087309335 0  1.830651283878689 2.049810069572418 0  1.689107969301489 1.367247437031697 0  0.4921048768039656 1.298643370653124 0  0.8213975694444444 2.336309523809524 0  2.03125 2.5 0  1.049729400480002 1.283723261332814 0  1.308101375801673 0.6489479469700392 0  2.5 2.34375 0  0.4968777175037714 0.7562964879736076 0  1.40625 2.5 0  1.501347663534097 2.307027627307738 0  1.602813712048603 0.1926218191360736 0  0.8393082906308107 0.463778306132633 0  1.682663349152719 1.598471865581041 0  0.7774174680851571 1.560004941327907 0  1.554204170364662 0.3898593897892066 0  1.842184459051087 0.186443880058197 0  1.358107417651776 1.696381759610015 0  1.18859291992392 1.77598670078022 0  0.1875331222687418 0.7609599743339348 0  1.339536743965101 1.422080365801479 0  0.7788179348750389 0.9955343414928611 0  0.9062978492805438 0.1919636509126373 0  1.256007360640958 0.3160320559396114 0  1.09375 0 0  1.174986727221844 0.1594990293443933 0  2.34375 1.796875 0  2.318026474511116 1.589177949022232 0  2.34375 2.5 0  1.672742954892153 2.332882724550692 0  0.2683637361947215 1.874801596909639 0  2.174770749820102 0.5581009131310781 0  1.443279522965991 0.8870068372898454 0  0.3385416666666667 0.3571428571428572 0  0.78125 0 0  2.060421048269335 2.314363248763811 0  1.088078737088509 0.8967352118723447 0  1.087825368444708 1.454931510884769 0  2.018308232129541 0.8548495425854904 0  1.943987311736842 0.3246298523011434 0  1.71875 0 0  1.85337849796276 1.144833312386208 0  2.3486328125 2.1044921875 0  1.407588788651747 2.042968789119587 0  2.336309523809524 0.865366648092144 0  2.34375 0 0  2.5 0.15625 0  0.15625 2.5 0  0 2.34375 0  0.1638044648294291 1.242263417405867 0  0.356216654757926 1.032569427322806 0  0.3188217956111817 1.355736727000647 0  0.5924956460852111 0.36112522004736 0  0.6594216488965849 0.1603472116132387 0  1.841804599497131 1.72214349266521 0  0.15625 0 0  0 0.15625 0  2.115898634821499 1.894570904464496 0  0.7821877980253907 0.7129993435924866 0  1.003820447087786 0.4516053462784233 0  0.477562948779147 1.138333049293613 0  0.719493678605015 1.305655360135975 0  0.9772457618587566 2.020350128938537 0  0.8764738248887107 1.826219722709673 0  1.254787875123819 2.339010653832026 0  2.343597354852534 1.249982759769001 0  0.78125 2.5 0  0.46875 2.5 0  2.5 1.40625 0  1.09375 2.5 0  2.5 0.78125 0  2.5 1.09375 0  2.03125 0 0  2.5 0.46875 0  1.40625 0 0  0.46875 0 0  0 0.46875 0  0 1.40625 0  0 1.71875 0  0 2.03125 0  2.5 1.71875 0  2.5 2.03125 0  2.005424054645407 1.653223486966518 0  0.1538730573856537 1.559850281736677 0  2.33984375 2.33984375 0  1.166539506212474 1.922878979538754 0  0.3914885633949916 1.65887232812171 0  0.5795503163042564 1.766243562569382 0  0.399533125920212 1.946786875081388 0  0.7866324979014098 2.127719094551316 0  0.3654683023546834 0.1495701132219454 0  0.1527388747131078 0.6116379440619215 0  2.013737577140188 1.391056634712135 0  1.17635437372994 2.213329084238133 0  1.737118141866284 1.010577140843115 0  2.200707118087222 1.164723314085963 0  1.697018908736685 1.993548551451517 0  0.5387621649009668 0.6070503962352419 0  2.032805785855952 0.5330427622570983 0  1.082699501358059 1.667818725183932 0  1.503819781540653 0.5468420196858188 0  2.015409142866072 2.175941657590429 0  1.752057611265444 0.869642097111018 0  0.612251684107783 2.356045720700959 0  1.902817102342857 0.6607642211999982 0  2.159616561739693 0.7867739969338844 0  0.5120038350106624 2.197302352398502 0  1.888200216011548 1.919501662489862 0  1.495909909726654 2.16028358757309 0  0.489139876703609 1.443203008943564 0  0.8819175670410521 0.3301172743913011 0  1.882591144370812 0.8155965192707721 0  1.133979796994841 1.172526771862882 0  2.206217447916667 2.084147135416667 0  2.20361328125 2.36279296875 0  1.395746985657004 1.556054166359645 0  1.704383111516207 1.734750450338683 0  0.9575737847222222 2.36274223823052 0  1.035150984253136 0.1302833343179028 0  1.383966125325753 0.7651479963479179 0  1.64003252158672 0.6824316405528895 0  2.22550785055421 1.487078576356817 0  1.760964431499756 1.48495222505201 0  1.276460980673788 2.004207003584658 0  0.1341477688427096 1.828777507920502 0  1.542261434180652 1.155296658359034 0  1.334627911613854 0.9696897472490321 0  1.30794231473696 1.119420615785191 0  0.7028260459857245 0.4438906910721139 0  1.625757433094055 1.84268057552138 0  0.9818707849053143 1.165603626132254 0  2.0086489901463 1.243134585689553 0  1.934584460420609 2.374094051915812 0  1.798434376789567 2.38671361912528 0  1.206314791201715 1.382064292497919 0  0.6333752893366955 0.7023738550008095 0  0.7796219811205605 1.42573253164258 0  1.564399711917382 1.026040828857629 0  0.3385416666666666 0.4889012896825397 0  0.1041666666666667 0.390625 0  0.989112246382566 1.543537365516289 0  2.025724425454636 0.9846960595520872 0  0.6602885475034063 2.086117390485779 0  1.607130551925032 1.267198646640915 0  0.1317864544877056 0.8896173683400176 0  1.755387840017567 2.230364320056445 0  1.301540702984401 0.1216289692748247 0  1.433170657577442 0.3331052752740999 0  1.500459610550388 0.113513924782439 0  0.6494291520606965 1.029586599619295 0  1.010146149868299 0.794897284196169 0  0.3700844198238017 2.235390157870766 0  0.3360891767780704 2.36656279435396 0  1.876856241037701 1.437150669863757 0  1.778674102957329 1.245979347269706 0  0.5472829890977179 0.1005517127039925 0  0.4669074189005698 0.3416784232954367 0  1.472765289289269 1.850899166481903 0  1.555853593327178 1.608452097912802 0  0.6708955559113426 1.646561631116984 0  0.8164699620322933 0.5924479455478063 0  0.3167738989468366 1.758696809749795 0  0.2788007305565096 1.605499483471246 0  0.7821720982350511 0.181524936294752 0  1.376812251214195 2.313340247908297 0  1.785652202614777 0.5962261755537186 0  1.761467296310972 0.4679567244718574 0  2.2265625 1.8359375 0  2.3828125 1.9140625 0  0.5279531607054191 2.071552361614785 0  2.397573269551114 0.234375 0  2.383578172599618 0.3589298466020009 0  0.1024267304488855 2.265625 0  0.1164218274003825 2.141070153397999 0  0.2696857594953064 2.135405441512016 0  2.164961300137334 0.1375322943529536 0  2.137757548369486 0.2724194778647587 0  2.238873711826398 0.3626419179496562 0  0.1001414910226386 0.234375 0  0.2176339285714286 0.3478422619047619 0  0.2503620791333544 0.1061694061057066 0  2.336445461915368 0.1250451055247424 0  0.2154004640409726 2.3918124
[...]
<PointData  Scalars="f_49-3"> 
<DataArray  type="Float64"  Name="f_49-3"  format="ascii">6.9919948291803047e-55  -2.2104723791784109e-12  2.5797611274070290e-66  2.5414347231650168e-78  -1.9470269091189234e-35  6.1888711227042152e-69  2.7700650261270633e-60  -8.8154070295829043e-22  -2.8020868808696836e-36  4.1356180847347441e-06  -4.2260222674353473e-22  2.0706390090571753e-58  1.7393012323830617e-38  3.2363426326806607e-70  -8.4903331124630440e-52  -6.7254571758017058e-74  3.7204028149016565e-66  7.3382477810387592e-48  -6.3535518932069533e-39  -2.6219180977522540e-24  1.9742731913486238e-54  1.6648074488798744e-21  1.4849040360327649e-45  -2.7712653933975768e-12  -8.4593173538276662e-63  1.2934282332556550e-30  -4.9256553985269701e-38  -1.0278805087106980e-51  -2.9777485065091757e-59  2.8564452977824027e-59  4.1890116380018651e-47  -6.5579892558650275e-49  7.9130162743667387e-12  2.6098804018399759e-55  -1.8797322898743966e-34  4.6307129436793109e-31  5.4341925604864837e-49  5.1492898011272932e-27  -8.3359574143959318e-45  6.3166811466255672e-64  -2.9497191911094943e-29  4.7823395091680830e-61  4.4116646744146906e-16  -9.3852735266579458e-08  -5.4285784933282474e-75  1.7514029470236540e-71  -1.8607109762395246e-21  2.0572161912648370e-18  -1.6738946496963879e-54  -3.5364465791511840e-45  5.6121829122467343e-30  1.1486014212811804e-57  1.2852819148743054e-59  -1.2901031387724066e-68  2.5874696940456868e-14  1.2983742217662040e-30  -1.4308243963559806e-59  7.5162081535871288e-70  6.3791985112391390e-47  -4.2920783820671109e-63  -3.7864209334859261e-72  -6.9603928707528385e-22  1.5691790338591383e-41  3.5014973962555372e-53  2.2584206549269497e-38  -1.2715906559738821e-38  8.2095028497411290e-29  -9.5683039411771430e-56  -1.0682340145164763e-50  1.2481734230354308e-51  -1.0234622573628191e-39  3.6330004977471205e-40  -1.0211521392209619e-34  -1.4443564876497942e-05  2.9989931354875249e-16  2.3378803225028766e-18  -3.1520541018921323e-67  1.9770946667470502e-69  8.9212916956478451e-62  -1.2986675626433504e-40  2.9298598681802743e-10  -2.4694567789046781e-30  3.0105348995160836e-53  6.5864222938175176e-44  1.5746867060850230e-51  -4.7130602267589165e-65  -1.3450351966837547e-63  -6.2634702924147981e-44  1.2579701982848202e-44  1.7321231222745057e-51  -1.1692000682193803e-56  -1.1115712832317835e-62  -4.5033686172017551e-59  6.4290638312849377e-65  1.5103650156288361e-54  1.4703575407041696e-36  -2.9655178115867824e-26  -9.7926454457909017e-67  5.4880447779758855e-48  6.0010792710872582e-54  7.0662536565462217e-48  8.6642752963989904e-51  9.8225127504381163e-45  -3.2319442370381401e-41  -1.4241550951188213e-45  5.4743292787027886e-08  2.4641312047607774e-09  1.3174222247660967e-16  2.0791553932377246e-60  1.2877845048275152e-63  5.5554693077987844e-34  -6.8643653336160149e-18  5.9765898090892526e-16  1.5367079297937646e-26  -1.5627951745703405e-23  -1.4285874990541951e-29  -2.0499357332801607e-33  1.0624947728945241e-56  3.7265657020902134e-58  -9.9218736544531850e-49  1.2881366511689553e-23  -1.2992167803390757e-54  1.6462303834583830e-68  1.2461422775478177e-32  2.8729097680743700e-34  -1.0203705908762335e-76  -2.0593697898934538e-13  7.9078010204672151e-61  4.6111067745143372e-57  2.8220449451008091e-46  -1.5878404192769212e-21  -5.7267897978492285e-50  6.1679958544708084e-33  1.1445278224814232e-45  6.3893990009473583e-52  3.6378576378172164e-43  2.8251879318247878e-41  6.7059510401256298e-09  7.1664282024953297e-40  5.0441040770457546e-22  -3.2316683553236630e-26  4.1759164535752419e-35  -1.0306498901927063e-33  1.8536592710867570e-34  3.0248514760157909e-69  -2.1745083732930351e-67  4.4894341373878037e-75  1.9886133330928240e-59  -3.4823999968547726e-40  9.7527187498158367e-62  1.9391552063755276e-39  3.6778727508752928e-11  -1.1201535250436902e-25  8.4424902717454991e-67  2.1796936504633523e-30  3.6105669431993547e-34  2.8788909609415070e-57  -2.3556477502179649e-57  2.4142948160821092e-47  4.1781640214094858e-52  -5.8567455702878349e-71  1.6555510297495400e-50  6.8750154512406984e-64  6.4835175884837404e-63  7.7963769891333827e-68  5.7042016006028708e-56  1.4143454453001458e-51  5.7926605641682640e-23  1.6701531082051045e-16  7.4089264773828644e-26  1.8623358706452025e-17  -9.2679086621102228e-22  -4.1737494101545709e-55  -9.1648387986121115e-15  -7.2394135372151380e-10  -1.7154046996175635e-63  -6.4445220067294094e-21  1.4320527904488464e-26  1.9511218620237742e-19  1.0648567281189046e-25  8.4645224216413013e-46  4.1915081334081842e-44  4.6986366910004714e-56  5.9112485330717703e-65  1.5533799303606832e-59  2.6186328761740876e-58  6.2792888477018422e-70  5.8766267052021064e-59  -9.2701942173030406e-70  5.2615264495126772e-69  -1.0529225622669749e-57  9.2707653732240192e-71  -1.0016398181836426e-40  -1.2280820127082512e-18  -1.8643306658344908e-05  -1.8592200757793099e-25  1.1419337551104515e-34  9.5554169504727191e-43  7.9693462897629224e-73  -5.4064109746647037e-74  2.7884347959951295e-58  -1.1172869879141100e-30  5.3002807605125165e-73  1.5791381108725733e-45  -1.4877397431861926e-34  -4.3362300756271693e-39  -2.2336507470509286e-43  -1.0391905715831311e-49  1.1365656515031016e-14  1.1738785945157593e-04  2.9019682076743477e-57  1.9845610305901977e-51  3.1536938747015861e-49  6.2633726668164246e-61  6.4654001256112541e-55  -4.3831526385169255e-14  5.6847830458842531e-57  1.0829954943291439e-37  1.1856615405114600e-40  1.1747846945308741e-63  4.1875120390546629e-47  -5.1675657139621818e-55  1.3883115630784048e-51  2.3154745784191465e-59  -7.5411681257881433e-50  -6.9212684673566441e-59  7.2429487821305085e-54  -5.1205935051880249e-28  -3.3563250044834786e-24  1.9012934945285735e-50  -3.7611107898007482e-33  -1.7406893869021123e-67  1.2555501568817867e-70  7.9973413524158983e-43  2.1662235015054680e-52  -2.0299571031146540e-56  -6.6026555976101326e-31  2.3041559412234739e-37  7.5454792617046200e-44  -2.9044485966342432e-64  1.6051585281810929e-50  1.1002790071357687e-47  4.2157072058844150e-38  -2.7044328557217239e-43  -4.9602117956577663e-37  1.6147349928668070e-36  3.9786701367701518e-18  4.6350753344288929e-51  6.9231453502667787e-29  1.8160207307563960e-56  1.4493004948142806e-64  1.6031491655437504e-63  2.7179298551516336e-36  -1.0305832032149856e-15  6.8086732730483411e-29  -4.5079461075860943e-43  1.3838140028931510e-08  -2.5605121722667671e-05  3.0771583808795919e-34  2.2521809571857547e-55  -1.4572502964704611e-47  4.9138848680511136e-45  1.4962578857074024e-12  2.2071815173082038e-58  -6.2982837065225985e-38  -1.0391561452805338e-40  1.0302180260832059e-43  6.3838281861148553e-20  -1.9953640061144793e-27  5.8125978330450984e-51  -5.2474770671376347e-54  -7.1957612244561808e-54  -2.6998347024206810e-50  -1.0071059085739926e-18  3.1046147827755393e-14  1.5111039499784704e-47  -1.5519977355113355e-47  7.0678819262982274e-36  2.0165597368865597e-21  -2.7066420665003850e-37  -3.7129592507760530e-32  2.5576188129005195e-24  6.9455374487070911e-57  6.2096764254208956e-48  -1.4292443419148116e-48  2.4470401496059140e-66  -4.8193648124264597e-73  -4.5669906522531961e-46  6.9650165946490184e-67  -2.5226172527353087e-67  5.8873137934046649e-50  4.5978882246799650e-46  2.2715366915687081e-47  -1.0503689716633372e-60  -1.9155411821177924e-60  -3.9186203816552602e-63  -3.7357398493211611e-09  1.0908447571884969e-07  -2.6859670426931214e-13  5.1482798427904573e-64  1.9665785472902754e-53  5.2908066104473505e-52  -4.9021347764752841e-12  -6.0900318191724503e-51  -7.9791983093520798e-28  5.5272831832487552e-32  1.3429548394949369e-35  7.5311490148250891e-45  -1.8700417900625390e-47  1.3078155576009925e-23  4.1306351854525851e-41  -7.1177534816107398e-55  -1.6116000941059330e-65  -4.4524895657718053e-66  -9.5851207163603928e-73  2.3382512687409771e-15  3.4875387639232429e-43  -3.8618709571727325e-41  1.2336928724148533e-41  -2.8149309799915682e-62  -1.3006946516226232e-43  -6.7147827974223607e-51  3.3944643593960738e-13  4.0071243439525740e-36  6.3711014701906853e-39  1.5950516243120507e-59  1.0700404659569268e-26  1.4499210761904856e-61  -1.0630145916256195e-51  -5.1524769861204561e-20  -9.8512393140617889e-66  -4.1256873282057385e-09  8.4380676854679032e-24  -7.9184621686694334e-61  -7.2091374603534682e-61  4.6361645694245065e-55  1.9769851962188651e-57  -1.4299717821008214e-30  -3.9223787096964520e-24  -1.8122276149188194e-69  3.0806104729919699e-64  1.0410836428629368e-24  -3.0690700645500116e-46  1.7932697185516117e-44  7.7094322274912870e-61  1.4121257270003608e-49  4.2517586106480990e-70  1.9606040259095533e-53  2.1830122585766781e-39  4.7401272575009583e-57  3.4941053884567569e-29  6.1599216678395413e-09  -9.1283154819380886e-11  8.5188288405474942e-06  3.4544844942408625e-46  2.3888325340894728e-33  -6.3048932659944590e-20  1.9268029335383610e-67  -3.9050643123585548e-67  2.1206718477376091e-58  4.8743516404260800e-53  6.5749985102589013e-76  1.2582609794581482e-56  -9.2231482351823848e-61  -1.2165253674601795e-36  1.3532726822196851e-68  -2.8703976571853224e-44  1.5406308685013366e-56  5.9859993597203771e-48  1.1896631399603011e-43  -1.5040341040366257e-38  -1.0665856616690802e-27  4.5409405648452801e-14  2.1988218163011982e-66  3.0450707554762922e-45  -6.8739367765312543e-30  4.1308822038034365e-33  -5.8210112141612017e-61  2.1267633399569130e-17  -8.8902506311838702e-24  -7.0049689977892864e-21  -2.3364166646059575e-26  2.4367950595167301e-53  7.9925758139603912e-28  4.5161003093180758e-40  2.6431907160775317e-36  3.3858371815613906e-44  6.2681898494109105e-49  5.7087572184851308e-63  1.8622013096331218e-32  -9.9781171694755618e-35  4.1898987083686821e-18  -7.9501366651632727e-53  3.9938393229396217e-13  3.5377255984989277e-24  -1.3287739936915569e-65  -1.5147335775419465e-42  -4.3179712728910010e-47  -2.6766641075651070e-66  1.1751737484041749e-31  2.2413183999755860e-03  4.6773086611131357e-16  5.2175339997284384e-54  6.7461957875266345e-58  1.0419528614569622e-40  -1.0910997015899264e-58  1.4779997646184024e-59  2.8676093293833729e-32  6.1240107348739382e-15  1.4918080973425917e-64  7.6134618552829179e-32  8.2039740923269035e-34  -5.0332787604541428e-32  2.2109856721556145e-61  3.8874636756327237e-37  3.0470009656209451e-31  -3.7901402121208253e-51  6.1351851870518791e-11  5.5801852974969748e-19  -5.2925969089604915e-60  8.2231179126162561e-34  3.9486360070320360e-48  -4.6031473254419785e-57  4.6775569063967623e-56  4.0371187442296031e-26  1.8180549774916077e-21  -4.2484731372118646e-41  -1.0364524260066510e-52  9.9602226804017779e-56  8.7167038811849528e-60  -6.9344444120243287e-24  -1.5988580356976451e-37  -2.8812455154871144e-57  -2.0142403298127183e-53  1.6479115560668792e-57  6.8396464284895291e-37  -1.9993544161275054e-45  -1.6470499756538145e-40  3.1197337574255063e-51  -5.3019458203057322e-24  2.2844921504575819e-62  1.0008100454885475e-35  -3.7696218267211467e-29  1.4734073963421666e-51  1.0075206700765754e-72  2.8348874595170458e-19  1.4793127122093870e-49  6.5492639933175266e-39  -1.2618999246852792e-28  4.1051200340888944e-61  6.9948338925325510e-40  3.3695597164818731e-18  1.0212085893945601e-54  -1.1960052212721532e-70  2.3669885702855096e-62  8.0958034598836433e-60  -3.5147791268394216e-27  4.0289260807352586e-10  1.2561175213956465e-34  4.6749739122949949e-10  1.4805875432508039e-45  3.8861553733325741e-43  1.4881410367290213e-23  5.5032521600691516e-58  -5.8055762000377450e-57  -2.7357678206169147e-26  1.3514213217638764e-53  1.3027463577867477e-14  3.3127253730070629e-42  2.4095369050554992e-06  2.0617993265859481e-54  7.2906844391200789e-21  7.9353001975188315e-24  7.3788770627055726e-33  2.8220976572155226e-37  -4.0125935732990583e-39  3.0046145904895376e-43  1.0278974273457312e-43  9.3590862211076481e-41  -3.9817686599820273e-17  -3.4242972050222909e-58  4.3217125363095034e-64  1.9022529499747735e-68  -1.6498240642068265e-52  2.0381019803424708e-21  5.8765857203097909e-63  -1.4532229467560715e-19  1.2966486845859867e-31  4.1072909918930680e-24  -8.1858815775180882e-49  -1.3392087594098068e-30  4.4171177856825859e-41  4.6942400269971550e-61  1.0885765840142879e-41  6.1759314707748070e-68  3.4910356836495195e-67  3.2809380091576007e-54  1.0288135454408026e-59  1.4403514297940739e-40  -5.5341740266063447e-65  3.2153491949208887e-54  1.4327780020751027e-45  -5.9762207827287041e-34  5.9128385076248132e-18  2.6644473625351524e-69  8.8281047369833439e-68  7.5890267397461221e-58  1.5796712668130605e-28  3.2992085386170648e-40  -3.0763926777223426e-37  1.6205057448614886e-49  1.7056356611264662e-66  -2.0898252888045953e-27  -3.0067111884195241e-51  -2.3797639126341773e-25  5.8706906180297889e-17  9.0670455416414288e-56  1.6163203131482608e-36  -5.9858463747168244e-44  4.2959693402212799e-56  1.0947923009660435e-55  -2.4250480179433946e-33  5.5694122104167081e-23  -6.9057617502416422e-37  -7.0070079391193601e-65  -6.1502554868440747e-51  5.8048154018295919e-42  9.9487803427287191e-50  9.3324232265134122e-51  -1.9828348730565398e-55  2.3092269599587291e-43  -1.4366194157200795e-62  -3.6491411256313697e-57  -8.4674375237431730e-37  -3.1069047834219437e-69  5.2593543078128912e-57  1.2501104904012903e-56  1.3729126306195726e-53  -1.8044773029520185e-71  -3.9029042818141405e-69  2.0435846165442734e-70  7.4900999873319804e-67  4.4673648755678579e-51  -2.4550230676525717e-58  -8.9411142757761222e-19  2.2425155950342670e-18  1.6555980108286494e-45  2.9123770581983871e-57  1.2531982466228611e-61  -1.5267169333707799e-47  -5.3445271700850437e-73  -2.8655636928620696e-69  -5.2570538032563983e-37  -7.1971837970143203e-40  -4.9186816357265930e-65  3.7787726895147938e-48  2.0624141633999854e-37  2.2366340366912515e-25  -1.7694780129655079e-57  -1.7970638711228549e-54  -3.6287399808986043e-62  3.8555483826610958e-10  1.9609783865747838e-08  -1.3213306080361009e-11  1.6149487679156251e-42  3.8878484374181636e-66  -3.2957269236057138e-51  5.4986963495569389e-12  3.3833155270086894e-67  1.5052342517110174e-51  -1.4824116409336129e-43  1.0500067926538881e-45  2.4290347656390922e-52  -1.7623502875531141e-74  -4.5893303594409086e-46  1.6178437641896972e-60  -6.3729909625010673e-72  2.6010461167410243e-10  -1.6557207790505781e-30  6.2980017944294165e-42  5.9815620485243379e-63  2.0313696953601177e-66  -7.7435685139315070e-39  4.4600678794612770e-53  -6.0596683360836862e-19  1.3176354487881332e-42  7.1468324464561099e-74  6.9052509913197561e-38  2.5284935575085267e-15  2.8069244279822266e-26  4.3923004571594418e-50  1.6322127006226230e-23  -1.0818807470853018e-35  4.6618145607757106e-29  5.8026567733207876e-64  -7.3022893709423239e-51  6.3633036151114405e-12  -2.0801017201553347e-26  7.6144049957442082e-19  2.8931684716563648e-21  4.3769584952986185e-23  -1.7815458828889753e-14  6.2080234116335499e-15  -1.5250082859668546e-67  -2.1410094940118264e-69  2.1750539967865014e-38  6.1979303408673081e-33  -7.1587670864924525e-38  4.0818302253323663e-28  -4.3513652612159568e-08  -8.6083657043040039e-56  2.5637101102991237e-63  2.7312272800145212e-32  -3.4268482984119930e-65  9.0304980446890542e-63  -3.6774753358186053e-69  1.6681226417512017e-47  1.0545103917527703e-65  -3.1402589600762488e-31  -3.5119489502782094e-61  5.1178674019341992e-39  5.7186731261467858e-54  3.1161516097033288e-56  -1.0493068828748646e-13  -4.2836592861727153e-11  -2.3280075602685223e-63  4.2620355143147270e-38  -8.2612857241553358e-72  -7.3132918361166121e-11  8.2072799417458426e-45  -4.0047553502846816e-69  -1.0035628861280225e-18  -8.2765142176880341e-18  4.1905739481111785e-46  5.3407286340796194e-59  3.5965718952902463e-34  -3.2645564916944396e-30  6.6664959965970108e-66  8.9184536436907809e-15  6.3565105502392446e-61  7.4804227728671604e-58  -9.9926255035704270e-29  8.2130860053428573e-59  -3.0800989701708066e-08  7.2086892575314241e-36  1.1221825930332582e-49  2.1557052741088072e-47  -2.0478083647092043e-41  2.4255309572252068e-61  -9.9309881930473083e-49  -2.5417055184727222e-47  4.8699635771786192e-30  3.8406050197655540e-45  -1.7601285848110367e-55  3.3230820317056889e-66  5.7220976406466093e-67  -1.5388316761860135e-47  -8.1387344113653275e-22  3.2348666707456127e-58  4.2929319860573822e-71  -1.7137256354134788e-34  2.9829200994275038e-73  1.6180098720325071e-59  1.2987109785511708e-69  3.0211622271244228e-53  2.0488309960393270e-55  -2.1001440883880413e-60  2.2545896323705039e-32  -1.0435178516367152e-59  -8.7223940454622443e-73  -2.5071529869887937e-50  1.3877399689171603e-45  6.4004394774015547e-70  2.5352864481743903e-69  1.0337283456337203e-71  -5.7710827893256434e-16  -8.9874146767645558e-20  -1.3047030622751134e-23  -2.9888516853583776e-59  2.2119096271886154e-07  1.1453078293136829e-27  -1.2898396193007500e-53  1.0402379684570449e-40  1.0255992068580458e-56  -6.8172429915922169e-15  3.1859658176539399e-49  6.8700540036952582e-69  -3.6469176900510095e-20  -3.1887710327760421e-42  -1.4110687907808341e-08  -3.3944644935592083e-07  1.2840453382603431e-64  -4.6058486859773643e-76  1.3349672769155148e-77  6.9250831856930130e-77  -4.4796046378807479e-28  4.7678687592937663e-61  2.3244468117080787e-06  -2.4684251943091941e-73  -6.3124462502459682e-74  -2.4837292030134040e-70  3.8375146090489392e-52  7.9441202083102451e-52  8.8565550045820478e-36  1.2380404114060558e-57  4.5662997264660444e-39  -2.2452234326924122e-58  -2.0154408714092264e-15  2.3336632645912201e-13  3.7867801599188133e-13  5.0695675456113744e-66  -8.8088542373500135e-18  1.1820601048911624e-21  5.1992416063071812e-05  -5.1229547971145918e-44  8.4536262268404260e-26  7.0516769063238116e-28  8.4530621628331369e-49  -8.3726787752432246e-29  -5.7391678859854977e-30  -1.9224979841223884e-32  -3.0041424474770617e-24  1.9000864608614563e-06  5.4045183821466625e-04  3.6886814918303205e-62  -3.2706922729357153e-50  -3.8321424637990429e-44  2.1659237706225925e-62  5.2032076992462651e-16  5.1183522030196946e-69  -3.7163549787047983e-30  2.0178273544609500e-46  3.2065402995253393e-30  4.0684614780143221e-14  1.0395308499371775e-41  9.7866215596042094e-46  -8.3404350940603685e-40  4.8337240578500649e-22  1.0112504647633226e-26  5.8500893485316835e-54  -4.7188623567964219e-63  -7.1984341101834612e-16  7.4769280839294823e-59  1.3210756864257663e-61  1.2654951025164357e-30  1.2685394029837305e-47  3.4834245513267113e-23  -1.1732910601822898e-48  1.6300095404479440e-17  -1.2280144255063309e-64  -4.5210571969766070e-36  -1.4344233989892154e-37  1.5104805525786025e-53  -4.0640661590280450e-54  -5.5309430271921236e-56  8.5492452358282155e-59  4.0278643548970191e-58  -3.7303495419132394e-49  -3.8713722479257058e-26  3.2427370666659881e-48  3.4510724040101362e-39  5.9735069698880016e-36  -2.9179736622227485e-40  -1.1202988034250654e-40  3.7216910381658535e-58  -4.2679294919362817e-41  2.9334700449697044e-49  -3.5287692923776953e-51  -1.1774519175808958e-45  2.2973062923594201e-46  -8.8540321224141228e-33  -3.5057557007816596e-34  -1.4433710375220915e-36  -3.2651117426088017e-31  1.4838054816617385e-61  -8.8858432858521941e-53  3.0696009621767169e-53  -9.3030184568760666e-51  2.5399262389201635e-49  1.7618726095741970e-51  4.7604696097067640e-59  -1.7093928131019962e-45  -4.1413971998277848e-42  2.4452114467822403e-64  1.6688299429599549e-66  1.1011618368562198e-63  2.0517970450454003e-38  2.1392576430034802e-28  1.2151504119939049e-21  6.6988035838294476e-46  -1.2429321845102664e-55  6.4624906998065264e-22  -1.6636853374078922e-39  3.7978488024480695e-60  1.5525132110972320e-11  3.7087164378353390e-54  8.1010192722386988e-64  9.1038615868247567e-63  -1.4146159671722901e-71  2.2317617040448976e-58  1.4456663433245309e-55  1.0548337848158369e-28  1.6732162461825407e-42  -6.8478343858690320e-39  -7.5446198689226387e-24  9.4707113637543953e-53  2.1425203848919947e-57  5.5530649148422853e-42  4.2533982680622820e-66  -1.4728911459090162e-31  3.6535780123790300e-38  1.1895139251980510e-28  2.3868264669573806e-27  -9.8305517388634075e-53  9.5371628639304584e-57  8.3073206121202353e-54  -1.66785574