<?xml version="1.0"?>
<VTKFile type="UnstructuredGrid"  version="0.1"  >
<UnstructuredGrid>
<Piece  NumberOfPoints="6486" NumberOfCells="12696">
<Points>
<DataArray  type="Float64"  NumberOfComponents="3"  format="ascii">0 5 0  0 0 0  5 0 0  5 5 0  2.5 0 0  5 2.5 0  2.5 5 0  0 2.5 0  2.5 2.5 0  0 1.25 0  1.25 0 0  1.25 5 0  0 3.75 0  5 1.25 0  3.75 0 0  5 3.75 0  3.75 5 0  3.541666666666667 1.458333333333333 0  1.458333333333333 3.541666666666667 0  1.875 1.25 0  3.75 3.125 0  1.284722222222222 2.326388888888889 0  2.683189655172414 3.767959770114943 0  0.9375 0.9375 0  4.0625 4.0625 0  0.7252209595959597 3.026357323232324 0  2.763480392156863 0.9129901960784315 0  1.875 4.345238095238095 0  4.345238095238095 1.875 0  4.192708333333333 0.8072916666666664 0  0.8072916666666665 4.192708333333334 0  3.368055555555555 2.326388888888889 0  0.6837606837606839 1.738782051282051 0  3.285485245626782 4.324328415208927 0  2.551239698778062 1.693130150610969 0  1.827256944444444 2.868923611111111 0  3.464875022477093 0.6813924607921316 0  1.942880513719175 2.059558626187995 0  3.04563492063492 2.971230158730159 0  4.375 3.4375 0  2.13639445139758 0.5994472256987903 0  4.272228422619047 2.606956845238095 0  0.625 0 0  0 0.625 0  5 4.375 0  4.375 5 0  0.6400043240752655 2.384646170113389 0  1.347691225855598 1.660875475110776 0  3.515783617857982 3.723905460714006 0  3.125 0 0  1.875 0 0  0.625 5 0  4.375 0 0  5 1.875 0  0 1.875 0  0 3.125 0  1.875 5 0  5 0.625 0  0 4.375 0  3.125 5 0  5 3.125 0  1.489644181965304 0.6007147273217681 0  2.054597701149425 3.742302955665024 0  2.662520990197781 4.39452575763237 0  2.415835363784578 3.165530021913244 0  0.8679986894865213 3.602373689486522 0  1.267459753787878 2.886186079545454 0  4.099702380952381 1.365327380952381 0  1.316964285714286 4.438244047619047 0  3.7915135293491 1.959691594758709 0  2.875141124191255 2.118761176511833 0  3.00418010501169 1.397414179299248 0  0.4081721322167092 3.410647930198662 0  0.4166666666666666 0.9375 0  1.014190407998288 0.4422301359994293 0  1.383260571305984 1.162718286082048 0  4.53125 3.90625 0  4.453125 4.453125 0  3.772848162504192 4.48678272083473 0  2.8125 0.404329517041716 0  0.4538690476190476 0.4538690476190476 0  2.305461739347387 1.04517007574828 0  3.771263799175824 2.624190260297553 0  3.229617768018734 1.809956994202883 0  3.780190884441317 1.025307111692601 0  4.646337365591398 0.9375 0  4.537623451379149 0.4609485750426037 0  1.200477888421151 3.934852888421152 0  0.3536626344086022 4.0625 0  0.4623765486208503 4.539051424957397 0  4.0625 0.353662634408602 0  4.560525106689535 1.390989100915847 0  3.958439078571988 3.619844539285994 0  4.672619047619047 2.1875 0  2.1875 4.672619047619047 0  1.862808494877602 3.325947624431087 0  0.3268135998175443 2.8125 0  4.674181280189791 2.8125 0  2.283233994935276 4.138623547175983 0  0.9375 4.677879119362977 0  3.08488061581743 3.469889594488945 0  3.113427375573758 3.913955730709506 0  1.652847799068813 3.950848935641292 0  2.932652662909449 2.550542739521724 0  3.311350648514189 1.088831994878698 0  0.6770833333333333 1.295851139601139 0  0 1.5625 0  1.047214787840024 1.96818092308125 0  4.183331482095785 3.03958703580843 0  3.4375 5 0  1.071307777252521 3.246275861010018 0  0 2.1875 0  0.386576856303419 2.03125 0  1.713862716483534 2.439783116849799 0  1.775396256975935 1.665976816304977 0  2.231236976948428 1.443917394671254 0  2.373900732409897 2.086930260150635 0  4.114918237574474 2.221646174618671 0  3.661302567757379 4.099620139144836 0  3.378215938602977 2.734494874063393 0  0.9842097536079312 2.597286741306247 0  1.642795138888889 4.672619047619047 0  4.0625 5 0  2.099458800960004 2.567446522665629 0  2.616202751603346 1.297895893940078 0  5 4.6875 0  0.9937554350075428 1.512592975947215 0  2.8125 5 0  3.002695327068194 4.614055254615477 0  3.205627424097207 0.3852436382721472 0  1.678616581261621 0.927556612265266 0  3.365326698305438 3.196943731162083 0  1.554834936170314 3.120009882655813 0  3.108408340729323 0.7797187795784133 0  3.684368918102174 0.3728877601163941 0  2.716214835303553 3.39276351922003 0  2.37718583984784 3.551973401560441 0  0.3750662445374837 1.52191994866787 0  2.679073487930202 2.844160731602957 0  1.557635869750078 1.991068682985722 0  1.812595698561088 0.3839273018252746 0  2.512014721281916 0.6320641118792227 0  2.1875 0 0  2.349973454443689 0.3189980586887866 0  4.6875 3.59375 0  4.636052949022233 3.178355898044465 0  4.6875 5 0  3.345485909784306 4.665765449101383 0  0.536727472389443 3.749603193819277 0  4.349541499640203 1.116201826262156 0  2.886559045931982 1.774013674579691 0  0.6770833333333334 0.7142857142857143 0  1.5625 0 0  4.120842096538671 4.628726497527622 0  2.176157474177018 1.793470423744689 0  2.175650736889416 2.909863021769539 0  4.036616464259081 1.709699085170981 0  3.887974623473683 0.6492597046022868 0  3.4375 0 0  3.70675699592552 2.289666624772415 0  4.697265625 4.208984375 0  2.815177577303495 4.085937578239174 0  4.672619047619047 1.730733296184288 0  4.6875 0 0  5 0.3125 0  0.3125 5 0  0 4.6875 0  0.3276089296588581 2.484526834811734 0  0.712433309515852 2.065138854645612 0  0.6376435912223634 2.711473454001295 0  1.184991292170422 0.7222504400947201 0  1.31884329779317 0.3206944232264773 0  3.683609198994263 3.44428698533042 0  0.3125 0 0  0 0.3125 0  4.231797269642997 3.789141808928991 0  1.564375596050781 1.425998687184973 0  2.007640894175573 0.9032106925568466 0  0.955125897558294 2.276666098587227 0  1.43898735721003 2.611310720271951 0  1.954491523717513 4.040700257877075 0  1.752947649777421 3.652439445419346 0  2.509575750247638 4.678021307664052 0  4.687194709705067 2.499965519538002 0  1.5625 5 0  0.9375 5 0  5 2.8125 0  2.1875 5 0  5 1.5625 0  5 2.1875 0  4.0625 0 0  5 0.9375 0  2.8125 0 0  0.9375 0 0  0 0.9375 0  0 2.8125 0  0 3.4375 0  0 4.0625 0  5 3.4375 0  5 4.0625 0  4.010848109290813 3.306446973933037 0  0.3077461147713075 3.119700563473354 0  4.6796875 4.6796875 0  2.333079012424948 3.845757959077508 0  0.7829771267899832 3.317744656243421 0  1.159100632608513 3.532487125138763 0  0.799066251840424 3.893573750162776 0  1.57326499580282 4.255438189102632 0  0.7309366047093668 0.2991402264438908 0  0.3054777494262156 1.223275888123843 0  4.027475154280377 2.78211326942427 0  2.35270874745988 4.426658168476266 0  3.474236283732569 2.021154281686229 0  4.401414236174444 2.329446628171927 0  3.39403781747337 3.987097102903034 0  1.077524329801934 1.214100792470484 0  4.065611571711903 1.066085524514197 0  2.165399002716117 3.335637450367864 0  3.007639563081306 1.093684039371638 0  4.030818285732145 4.351883315180857 0  3.504115222530889 1.739284194222036 0  1.224503368215566 4.712091441401919 0  3.805634204685714 1.321528442399996 0  4.319233123479386 1.573547993867769 0  1.024007670021325 4.394604704797005 0  3.776400432023095 3.839003324979723 0  2.991819819453308 4.320567175146181 0  0.9782797534072181 2.886406017887129 0  1.763835134082104 0.6602345487826022 0  3.765182288741625 1.631193038541544 0  2.267959593989681 2.345053543725764 0  4.412434895833333 4.168294270833333 0  4.4072265625 4.7255859375 0  2.791493971314009 3.11210833271929 0  3.408766223032414 3.469500900677365 0  1.915147569444444 4.725484476461039 0  2.070301968506271 0.2605666686358055 0  2.767932250651506 1.530295992695836 0  3.280065043173439 1.364863281105779 0  4.45101570110842 2.974157152713635 0  3.521928862999512 2.96990445010402 0  2.552921961347576 4.008414007169315 0  0.2682955376854191 3.657555015841003 0  3.084522868361304 2.310593316718068 0  2.669255823227708 1.939379494498064 0  2.615884629473921 2.238841231570381 0  1.405652091971449 0.8877813821442277 0  3.25151486618811 3.68536115104276 0  1.963741569810629 2.331207252264507 0  4.017297980292599 2.486269171379106 0  3.869168920841219 4.748188103831625 0  3.596868753579134 4.77342723825056 0  2.41262958240343 2.764128584995838 0  1.266750578673391 1.404747710001619 0  1.559243962241121 2.85146506328516 0  3.128799423834764 2.052081657715259 0  0.6770833333333333 0.9778025793650794 0  0.2083333333333333 0.78125 0  1.978224492765132 3.087074731032578 0  4.051448850909273 1.969392119104174 0  1.320577095006813 4.172234780971559 0  3.214261103850064 2.534397293281829 0  0.2635729089754111 1.779234736680035 0  3.510775680035133 4.460728640112889 0  2.603081405968802 0.2432579385496493 0  2.866341315154884 0.6662105505481998 0  3.000919221100777 0.2270278495648781 0  1.298858304121393 2.05917319923859 0  2.020292299736597 1.589794568392338 0  0.7401688396476035 4.470780315741533 0  0.6721783535561408 4.733125588707921 0  3.753712482075402 2.874301339727514 0  3.557348205914658 2.491958694539413 0  1.094565978195436 0.2011034254079851 0  0.9338148378011396 0.6833568465908735 0  2.945530578578538 3.701798332963805 0  3.111707186654356 3.216904195825605 0  1.341791111822685 3.293123262233967 0  1.632939924064587 1.184895891095613 0  0.6335477978936732 3.517393619499591 0  0.5576014611130192 3.210998966942492 0  1.564344196470102 0.3630498725895039 0  2.75362450242839 4.626680495816594 0  3.571304405229554 1.192452351107437 0  3.522934592621944 0.9359134489437148 0  4.453125 3.671875 0  4.765625 3.828125 0  1.055906321410838 4.14310472322957 0  4.795146539102229 0.46875 0  4.767156345199235 0.7178596932040019 0  0.2048534608977711 4.53125 0  0.232843654800765 4.282140306795998 0  0.5393715189906129 4.270810883024032 0  4.329922600274667 0.2750645887059072 0  4.275515096738972 0.5448389557295173 0  4.477747423652795 0.7252838358993123 0  0.2002829820452772 0.46875 0  0.4352678571428572 0.6956845238095237 0  0.5007241582667088 0.2123388122114133 0  4.672890923830735 0.2500902110494848 0  0.4308009280819452 4.783624996516437 0  2.104871305393774 4.438653689007242 0  0.2274454167838428 0.2274454167838428 0  3.446466574593436 0.4359605369011901 0  2.12354112127588 1.217588426759619 0  2.309175236825235 0.7888355970690434 0  2.556178570281936 1.054299163237582 0  0.578683248637
[...]
<PointData  Scalars="f_10845-3"> 
<DataArray  type="Float64"  Name="f_10845-3"  format="ascii">1.2243709571350955e+05  3.3545485476281361e-01  3.2889949921978217e-03  3.1936005829713960e-03  8.3577202326920036e-03  3.2593805058087548e-03  1.5465487111279270e+04  9.0970374570375786e+09  8.1990667630540744e-03  -1.1874228362077647e+04  1.1826972111357158e-02  4.3064845628902971e+04  2.6987502895133898e+07  3.2800452252463789e-03  5.8165187307593312e-03  3.2553697675655321e-03  -2.5485319177198222e-03  6.1917542251816796e-03  1.1476950785846803e+06  9.6499964717403318e-03  5.7868879976625612e-03  -4.6911160107679997e+01  2.2951084039723380e-01  1.2974968443381822e-02  5.0762920370549620e-03  1.5669542522636151e+08  7.7859345154576804e-03  3.9923447012002475e+05  4.5787792004580172e-03  4.8838157319899137e-03  2.8677883923414913e+06  6.5685815590829366e-03  -4.3689931097039448e+02  4.1657118581337515e-03  8.2321987432965021e-03  -2.5795961367925757e-01  6.3698848661801312e-03  4.5588170912838257e-03  7.1737045734152436e-03  4.5151664971364910e-03  9.0915693743053409e-03  4.7158813274988933e-03  3.0592986447337562e-02  1.6775436932764756e+00  3.2611943559637123e-03  4.1671282651480276e-03  -1.1446812716754964e+06  4.0359476084311723e-02  6.1549260600111348e-03  7.0539975657664270e-03  9.6451488047769561e-03  7.8765563928603529e+04  4.5406271555707405e-03  3.2505837816758812e-03  -3.2878559530862294e+07  5.3961586250489175e+08  3.6613563560065239e+04  3.2905314659505843e-03  2.0232612649001314e+06  1.1162032729391809e+02  3.2428013422850194e-03  1.0594351632008326e-02  -1.8137005628070474e+02  1.2265862580889726e+02  3.7223955932369553e-02  3.6673036593102120e+07  -6.3845072250296034e+03  5.0751830893668260e-03  6.5314429293834220e+05  5.6969559541354530e-03  7.5712974204375618e-03  7.3069005407452228e-03  1.1721308447382201e+08  -1.1449224598575962e+00  1.4075511097339816e-02  1.0760220326608413e-02  4.2058258580280001e-03  4.2802826673625583e-03  5.2780434297852348e-03  7.7038831688741776e-03  -6.6388747153453359e-02  8.7443771481947249e-03  5.7506121686496459e-03  6.8542778197043068e-03  5.7297608496026334e-03  3.9837666439504898e-03  4.2097818610389469e-03  6.4868899585320354e+06  5.4416987576675098e+06  5.1406195138975605e+05  5.1701392149804716e-03  4.1287191452139688e-03  5.3486904834621016e-03  3.9125563746481478e-03  7.4761626359937058e+04  -2.3262194060960994e+01  1.6140982658054433e+09  3.8922204893881321e-03  2.9969282734023805e+03  2.2895647955990190e+05  7.0810989022266416e-03  4.6727319815382832e-03  1.2638474384722640e+06  7.4541021672903740e-03  6.6639634965056770e-03  -1.2056775751475841e+00  -7.0909588939949649e+05  9.2610187373360418e+01  4.9140632353852588e-03  4.2286774107092040e-01  1.3941058937956812e+07  1.2476038975189133e+08  1.2283851856393241e+06  -3.4216242090030216e+00  8.5370663581070590e-03  8.8887978533445204e-03  8.5851622981437618e-03  5.0260164948425900e-03  5.7937994793628702e-03  6.5466583600606353e-03  -4.2025575185343943e+04  1.7904471460383080e+05  4.3061845991987638e-03  4.6353618021666890e-02  8.1110362589665655e-03  3.2349549012257832e-03  1.2244633133688723e+00  2.4370212361364079e+03  5.1003874996988874e-01  6.9000111865584980e-03  1.0094762019612551e-02  6.5484625593015492e-03  -9.2978839476394057e+02  7.0913010167517254e-03  5.9131327945018608e-03  2.9241425518864474e-03  -4.9027137258105413e-01  1.2241242254802004e+04  7.9258662979224143e-03  -3.3112206360239577e-01  9.7991520925810073e-03  8.2988938454965563e-03  8.9689658154232989e-03  8.6254976214938037e-03  3.8820276196216280e-03  3.9782745588340680e-03  3.7348178544926109e-03  -1.3916336911047014e-01  2.2016207191515587e+07  4.5579172075149148e-03  7.5594160021246375e-03  1.2035200024363421e-01  1.0478633052606406e-02  4.7870336848347458e-03  9.0067973476725093e-03  -1.0256981597631502e-02  5.1889418460046403e-03  5.4966943957261488e-03  6.4302408663990665e-03  5.8759456026865296e-03  3.8542870897430395e-03  -7.8303956834722299e-02  3.9075832205045001e-03  3.9122980302137558e-03  3.2971224391244967e-03  1.0554099329475069e+05  4.6528116643420386e+05  4.5331361826813236e+07  -3.6048359458417849e+03  4.2546279386201678e+06  1.2272048053641831e-02  1.1269055493755693e-02  5.9025439826050552e-03  1.3059062293659338e-01  3.3224080389309801e-01  4.7965672689673890e-03  9.8868704386775239e-03  9.3601139817232077e-03  1.0157870578249845e+04  -3.0687176961233143e+02  1.1259757223459308e+05  3.0896984054013403e+04  1.1003566856098272e+04  3.8657691725303791e-03  4.5000170517480263e+04  5.1475851153852556e+04  3.2485770016325959e-03  2.8639144477216931e+04  3.2600107419842404e-03  3.2553741305297200e-03  5.1736500415257153e-03  3.2930545052056994e-03  7.7035766962180920e-03  1.5145952275054643e-02  6.2955635973524522e+02  2.3381293624634209e+09  1.2248381231125118e+08  5.5932470938242963e+06  3.2513019024337912e-03  3.2552630444503423e-03  5.2558850212293239e-03  4.6914577298993945e+08  3.8246760367027584e-03  -5.5506585733524894e+01  1.2051114658124737e+08  1.8263784464646213e+07  1.0513414201736623e+07  1.1548436429946586e+06  2.7447252484827510e-02  -4.6552913887121804e+02  5.2253110559261342e-03  1.4708545015869053e+04  6.3518963435461959e-03  4.4390028020113324e-03  6.4686328027201310e-03  1.5861559072661170e-02  5.1406621054528980e-03  -2.6611610342816565e+00  7.2867243190858607e-03  5.0657325429240832e-03  6.2794448474654541e-03  2.0316695297923891e+05  5.6755241396883004e-03  4.6281641105732543e-03  9.7834622892279422e+05  5.6481841739436673e-03  -5.2639390720267831e-01  -6.3438797181404510e+05  9.8992819723827466e-03  5.7356827303432795e-03  8.7611198891007751e-03  4.4100358344081308e-03  4.2971662019823170e-03  7.7034159575542476e-03  6.4048644572558102e-03  1.1425685494072332e+05  9.2240375747547447e-03  7.7945632920974062e-03  6.7321406857616100e-03  4.3549400706394473e-03  6.2503643514536010e-03  -4.3220594096751714e+00  3.8235789822012484e+07  7.1450919156598059e-03  7.9921728675639153e-03  8.1071357187464353e-03  1.0984753481444899e-02  6.6798844944937000e-03  -7.9320583838136074e-02  5.2396297635942364e-03  4.7601552278195083e-03  -5.6628725277212567e-03  7.0965164985400692e-03  5.0073971809714429e-03  3.9104938977053473e+02  7.0591112925307816e-03  5.8374698528478441e-01  -1.1238041135767350e+01  2.5130846703362804e+00  5.1563602631790025e-03  2.1341582847871906e+06  6.8797286431818419e-03  4.9939540187686076e+05  5.8164589595414550e-03  8.1303529585670196e-03  7.5718307973171037e-03  7.3187963407171774e-03  -7.7618610150377432e+00  9.3135694235185022e-03  6.6367656623643672e+05  1.8898357563057562e+05  5.7774962071084658e-03  6.1867609507691400e-03  1.2702101309132043e-02  1.0025806799442684e-02  5.5656680472910272e-03  6.9903337814575424e-03  8.7316424547141549e+04  1.0248892433127130e-02  6.3537489143266380e+07  2.6343519251283407e+08  1.0428286927525008e-02  5.5933892201326216e+02  6.1458393264257598e-03  6.2601739638996397e-03  4.3553407197853018e-03  3.7262430806264644e-03  2.8968742941853055e+06  3.6882407197667707e-03  3.7528039461709830e-03  8.6065859583631845e+05  1.8733723532736416e+06  1.8810462383966723e+06  4.6311111179271319e-03  4.7368988721194589e-03  4.3259686108777706e-03  1.1218465284242278e+00  -6.7665608608090372e-02  5.0564236314362916e-02  3.9418867842247827e-03  2.3385907935134048e+05  1.2388333815616812e+05  1.8297289094319419e-01  6.3994254681569353e-03  9.1129099255147002e-03  8.7369328014023240e-03  8.2329900572811754e-03  7.7777614028381314e+06  6.7330898248048826e-03  -2.5994254392148890e+00  1.3593571939042505e+07  5.5737126378660592e-03  3.7765643597013239e-03  3.7160683223862764e-03  3.7099776103365839e-03  1.0764331128501609e-02  4.2538387252449477e+06  1.4471473013054378e+07  7.1705416836296051e-03  4.5426645848304107e-03  7.1427602640051161e-03  5.9190797664485408e-03  -1.1461257029295167e+01  -7.5940521910297621e+03  -5.2289301871122689e+02  4.5882459759160497e-03  1.0037520967501093e-02  4.3531955992566259e-03  1.4547967882105351e+02  -5.7880700227115620e+06  3.7126708944725758e-03  -1.4307783096101552e+04  -4.4276494550783434e+02  4.9727057470175572e-03  5.2329214195049713e-03  5.3265308670311165e-03  3.2155849011095692e+04  5.4051449071167159e+08  3.8590065988692684e+09  3.5627818337633024e-03  4.2363214577359077e-03  2.1435914778462009e-01  6.7384145601890348e-03  6.6573297864378957e-03  5.4466733937096534e-03  6.1080295150494589e-03  3.5692789611987616e-03  8.8788278441383137e-03  7.6843294676836246e-03  1.2145162536066254e+05  -3.9279411365693234e-01  2.0348713557558085e+02  -1.9612735595857130e-02  -2.3269840694166877e+01  6.6784937452638747e-03  2.4227898765479589e+08  -5.4026753446759653e+08  3.5632262315395211e-03  3.5816867416238103e-03  5.5348120721933810e+03  2.4717667499080789e+05  3.5238749647976365e-03  5.3404758968529781e-03  4.7151576613921635e-03  7.7574619853333472e-03  4.4789750302725046e-03  7.1932264969228853e-03  6.2520068565769735e-03  7.7514007916198310e+05  1.0480143327399512e+05  7.8671294808711715e-03  1.0786943346091008e+09  2.1831580121866746e-02  4.6607080944906240e-03  7.1074142683908064e-03  1.6549748410449292e-02  8.5567381632231342e-03  2.2436085646552533e+02  -1.1028243531186790e+00  9.5672305906365582e-03  1.4806961662536993e-03  8.9466199687608643e-03  5.3845007309663235e-03  -1.8759503337842759e+01  -9.5348524058557729e+00  5.7388873800895329e-02  4.4460626767753166e+02  1.0884719164402505e+05  4.1498741005834179e-03  -6.3559408754175813e+01  8.3036129115717453e-03  1.1705874834742405e-02  4.6021537010624132e+05  -2.1310278231344448e+04  2.2048852003235576e-02  4.5865355464102513e-03  7.4893648795362365e-03  6.7627007530644762e-03  4.0754714687295896e-03  -5.0737892315359512e-01  2.5670163731149461e+01  9.0226679353184160e+06  5.4439000046040999e-03  4.7676803359793475e-03  1.0403556633969172e-02  4.8370073026654144e-03  1.8400524572264521e+00  -2.2573858180290394e+05  -8.5935464488668356e-01  3.5776330816983215e-03  8.5782594584319343e-03  8.3922459190477888e-03  8.6712688333332334e-03  4.5156579574826394e-03  4.7971259614339828e+07  2.4314139129792713e+07  6.1097168176264200e-03  -3.8844222783397492e-01  -3.6457102288148269e+02  4.6080686000248228e+04  9.3195630529066594e-03  4.2159273221494854e-02  5.7336538864698212e-03  -3.7186064548352188e-01  -3.9983045147229634e+04  -4.1717027369238895e+04  1.1391159349616038e+07  6.2080196857575744e-03  5.9850272831729221e-03  5.4653117742425256e-03  1.1043396054398568e-02  2.2542625426656346e-02  8.0167214862804336e+04  2.9434860778848600e+05  5.1405281772661082e-03  8.2737524982238481e-03  3.2319755012932532e+06  7.7323427757413051e-03  -3.1833534520952424e-02  1.0705616499206228e-02  4.1819518008027667e-03  9.6331106262696654e+07  8.8055752693921487e-03  6.0216278636936234e-03  3.9853926665001527e-03  -1.0070183850377699e-02  6.7241108527789596e-03  7.7004283125546285e-03  9.5230888827969283e-03  4.2312489249225708e-03  -1.0018249631490031e-01  1.0622512363458656e+07  2.3628339428176908e+00  3.8662641227192257e-03  4.3240436323975541e-03  3.3002512820443910e+04  9.3314449603762693e-03  -9.1812884499497329e+00  2.1862810470419661e-02  -1.5631501102403113e+03  8.4461367304510884e-03  6.9706983498339561e-03  -3.1120144590429459e+07  4.8635242746169908e-03  4.9783141278820489e-03  -1.6715298447060657e+06  2.5819119947413815e+05  -3.1331126943143630e+02  6.9929252470407885e-03  -1.6993740727189603e+01  5.5417019104640284e-03  1.0393200324720280e-02  9.8333880178378980e-03  8.6761616064086888e-03  7.9496079842142475e-03  7.9520756042871302e-03  1.2542746853918516e-01  -1.6096712997556779e+00  6.4650515138643455e-03  1.5738187445559281e-02  6.1043615495759230e+04  5.0454426959480594e-03  4.5313032384813393e-03  4.2105854089185083e+05  1.1030133223470443e+03  1.3402209166329028e+01  1.0600035069134683e-02  8.9970228763967559e-03  1.5022029214611024e+01  1.4127789177958050e+06  -7.8673835600899029e+03  7.4332993466323001e-03  4.8606817017965787e-03  7.2244839479986521e-03  3.2507896159331084e-03  3.9357994830618468e-03  5.6251396753581066e-03  5.4839760963756867e-03  1.7813671787782691e+07  4.7601586446293009e-03  5.3414667488356823e-03  6.8450364479928881e-03  8.4036067709815834e-03  1.8596230369743647e-02  3.2858024181245775e-03  3.6282413928753819e-03  6.4611370046961594e+04  9.6188281997469927e-03  2.9733400758472558e+07  5.0561464034632854e+07  6.0555635003828392e-03  4.6797082485293667e-03  9.3880170748950054e-03  -7.7457987341792052e+00  9.4122937774427096e-03  -5.6346175281250498e+02  5.3561795537753146e-03  5.8726649005414404e+07  6.6525367644119337e+06  1.0503698130374149e+05  1.0775998031880637e+05  8.8634567304837920e-03  1.0181209887667006e-02  8.0093323738534387e-03  4.0601542497835045e-03  6.3433418951515458e+05  9.4002910123281810e+05  6.2444007566576955e-03  5.9896458944752404e-03  5.6464394976247032e-03  5.5595683151743775e+06  4.7056602051520260e-03  4.8534203153934143e-03  8.4486983233904404e-03  3.2739660448230156e-03  4.9206353072208942e-03  5.0186659524646014e-03  5.4096584392015245e-03  3.5615100262223220e-03  4.0379155877554966e-03  3.6101373262296551e-03  3.2804845740169266e-03  3.0178091705280229e+04  4.8271956698709272e-03  -1.3789628445292989e+05  1.5253474295483682e+04  6.7162877917026128e-03  -2.9639979016521344e-02  -5.1872368825097888e-02  6.5310572407401568e-03  3.5541579125557285e-03  4.1505514601404897e-03  7.9062984737491796e-03  7.6309432899913047e-03  4.0483690891314743e-03  1.1389367059187901e+06  -2.1450305668977085e+03  9.7026959429549319e-03  5.4479290623544521e-03  1.4600837781746517e+05  4.2834279824608039e-03  3.3103437061028737e-02  3.6457379095462927e-01  -2.8933897798129510e-02  -3.5241561622064495e+01  3.5985533678350736e-03  6.2394384755262077e-03  3.6879526124593387e+06  3.5943985717715871e-03  4.3804599119301111e+05  7.2496749307208244e-03  6.4739517554766026e-03  -1.9152263712296347e+00  3.5377874970975282e-03  7.2518388221753166e-03  3.4680939993275615e-03  3.5808260841051417e-03  -3.7821201645055262e+03  -4.4984251651218790e+05  1.3245621840331264e-02  4.2177745409480924e-03  3.5715201308405627e-03  5.2925771703144434e+04  6.4182743433075454e-03  1.2030968871927242e-02  6.9953386613882300e-03  3.2549601642549988e-03  8.2784214177163366e-03  -5.2644645908891252e+03  5.1386762226623921e+02  6.6864350881264125e-03  1.2782236069875376e+06  8.2409636870310471e-03  8.9958762563673959e-03  4.2368712004610476e-03  5.7673706555062647e-03  2.3896050686541378e-02  3.4126739645759135e+08  1.1147567009627098e-02  1.1662627691246368e-02  1.0958858013988474e-02  1.0316276676955765e-02  1.2314613082622433e-02  3.5801473320282002e-03  3.2542893487060728e-03  7.7861939397277022e-03  3.1637423561222322e+00  7.9049366294766180e-03  6.8316211991441950e+07  1.5627333622979338e+00  6.1163292987629712e-03  3.9965733330447539e-03  9.3049625891228546e-03  4.4781215779266925e-03  4.2784215879367862e-03  4.1174771877014954e-03  4.5246030993178926e-01  4.8179374937110204e-03  9.0055949444111886e-03  5.0242810473150176e-03  7.4645733982757027e-03  1.8031222497118947e+03  3.3863871337206081e+04  1.2127813263732452e-01  1.4277480260250822e-01  4.8991262399082245e-03  8.0244655705360851e-03  3.9801108786688931e-03  2.3920597420212911e-01  3.6166686764844311e+06  3.5623183594770047e-03  1.0891521088926654e-02  -9.7338256814549480e-04  6.5301831425460810e-03  5.0609331154324892e-03  -6.8339411330772884e+02  9.0624786163002145e-03  3.6301576371063891e-03  3.5388682632010122e-02  4.4355968509974981e-03  5.1589256518162416e-03  9.4394207380501440e-03  4.6871344675804179e-03  5.3765333064568344e-01  1.2716526174418832e+08  7.2481188615133043e+05  1.6166988800523137e+06  -4.7847866242875301e+02  5.2774181600495447e-03  6.4162362976220386e-03  6.9224453081146416e-03  2.3676478025809664e-02  3.4007771575178300e-02  5.4431299208487190e-03  3.8767939099899713e-03  3.5460751772996967e-03  2.4504626427640263e+06  3.1490548041444812e+09  1.3255586781642924e+03  3.5493862797557744e-03  8.6632740746405857e-03  3.9873720508714619e-03  4.1005751915163026e+04  4.2934955583296148e-03  2.3426542469133696e+05  1.0745712504780175e+05  6.7303474842124233e+03  2.5712701978622445e+08  5.2234469061536380e+04  3.2464181243799378e-03  6.1261005822999450e-03  6.7407786895452085e-03  3.2590975135359606e-03  3.2521608250687937e-03  3.2445586854492120e-03  5.7712633408311360e+07  8.8925226107581711e+09  4.7472077605561304e+09  2.1906989867467957e+04  -8.6873315895180451e+04  1.0036463109172146e-02  5.4915159246755685e-03  1.2278995686073910e+07  8.9008718071887706e+04  7.6262040811421308e-02  9.5159182254616485e+05  3.2989040589299877e-03  1.3057355562033282e-02  7.3836677262977815e-03  -4.8569239194248048e+00  3.6787015861834232e+02  -4.4978449778271479e-02  3.2476765680275708e-03  3.2255017563660527e-03  3.4673161202537152e-03  1.1511266485595651e+09  6.5175707993766412e+02  -3.5081514987904870e+02  3.2539042591412000e-03  3.2671518324932491e-03  3.2891930152144414e-03  5.6841813524344323e-03  2.0627814898563875e+03  -3.4390745654114263e+00  8.5862553989410473e+04  7.4193647248895810e-03  1.5087716610376752e+04  1.1192320747164950e-02  1.1134717441127530e-01  -6.7381425260106889e-03  4.2537672086465977e-03  1.6318294858897801e-02  -2.2204950115829653e-02  -1.2677786610140536e+03  5.6293756172304004e+06  -1.8837526048130638e+01  9.0543057566271345e-03  3.1870922273546556e+05  9.2183613948549390e+08  5.4693198444062948e+08  2.4618262939331511e+08  1.5087283702495167e+09  3.9203220655422538e+03  -6.0866893005435088e+01  4.2055701756873714e-03  6.7750484237781286e-03  1.2397239464912822e+04  4.5512182656564822e-03  -4.2671916079979604e-02  3.5807395229916165e-03  5.1740282695113355e+08  1.8150425859300834e+04  3.3567893703153280e-02  -1.5350197702042813e+03  7.6703527025772343e-03  4.3205858687965618e+05  7.5107660855552238e-03  -9.7542423239686094e-01  -7.9956502817623432e-01  5.6120965815325318e-03  4.0654390090913602e-03  -3.1664972483404870e+00  4.6383206327557901e-03  4.4014670013612480e-03  9.5489933033488910e+01  6.5443995741384653e-03  9.9164042899923498e-03  6.3308727877793292e-03  1.1075047330988567e-02  4.2472584785969315e-03  7.8506864921132596e+06  2.8416372128340774e+06  2.1398087290304013e-02  5.5527065880061136e-03  5.4277779602755474e-03  5.0061368333446203e-03  5.0610956075187973e-03  1.1192702810131677e+06  2.1441565486600430e+09  1.4957336718322196e+01  3.1939797968681119e+07  8.1101150300198505e-03  2.0085702895093326e+07  1.4899255271954771e+07  2.0178365099539846e+02  7.3521512037797885e-03  5.9885507983199653e-03  5.8294227469638995e-03  3.2585293322051559e+06  -1.4887951033159354e+02  2.0257405847359216e+08  6.1535534840232812e+07  6.8606771927196503e+07  8.8096034412652215e-03  4.6053488214095441e-03  6.0760884571479408e+04  1.3171752270427598e+04  7.1556982900317525e+05  1.3715976875158281e+06  5.3276405542810459e+05  -3.0258873262538027e-01  6.9886036038872366e-03  7.4935423044763770e-03  4.2786037138444520e-03  3.6469722192903550e-03  4.5129037101618828e-03  -4.9618963405049612e+01  -2.8387075481115044e+03  1.2287645343847180e+07  6.8449437632021734e-03  5.2775281624955865e-03  9.9347937196589773e-03  7.9972107109373206e-03  6.0888335602402033e-03  -1.1429416044336362e+01  5.7075567878006987e-03  5.0005404478736777e-03  5.2690632142390597e-03  3.5776973509925973e-03  4.8187762355088775e-03  1.4492431314747993e+05  9.1318976097155502e+05  6.6443198852230573e-03  7.7617553537608994e-03  -1.3200005562017672e+05  6.0122233578005311e-03  6.1133329992974494e-03  5.2214704063286548e+06  4.0284938710570062e-03  8.5841211464955710e-03  -6.8106797762353982e-02  -4.7355283385885887e+04  3.6346567589618142e+04  3.8847128064542013e+05  9.1505802321147741e+04  5.4456808225435199e-03  1.0501848613193471e+05  5.3993787105554355e-03  4.0687518652224447e-03  4.5649164986884460e-03  2.0429108026558817e+06  7.0509613204572160e-03  4.0913166400237616e-03  4.9583178965225605e-03  1.8164708783839613e-0