<?xml version="1.0"?>
<VTKFile type="UnstructuredGrid"  version="0.1"  >
<UnstructuredGrid>
<Piece  NumberOfPoints="6486" NumberOfCells="12696">
<Points>
<DataArray  type="Float64"  NumberOfComponents="3"  format="ascii">0 2.5 0  0 0 0  2.5 0 0  2.5 2.5 0  1.25 0 0  2.5 1.25 0  1.25 2.5 0  0 1.25 0  1.25 1.25 0  0 0.625 0  0.625 0 0  0.625 2.5 0  0 1.875 0  2.5 0.625 0  1.875 0 0  2.5 1.875 0  1.875 2.5 0  1.770833333333333 0.7291666666666666 0  0.7291666666666666 1.770833333333333 0  0.9375 0.625 0  1.875 1.5625 0  0.642361111111111 1.163194444444444 0  1.341594827586207 1.883979885057471 0  0.46875 0.46875 0  2.03125 2.03125 0  0.3626104797979798 1.513178661616162 0  1.381740196078431 0.4564950980392157 0  0.9375 2.172619047619047 0  2.172619047619047 0.9375 0  2.096354166666667 0.4036458333333332 0  0.4036458333333333 2.096354166666667 0  1.684027777777778 1.163194444444444 0  0.3418803418803419 0.8693910256410255 0  1.642742622813391 2.162164207604464 0  1.275619849389031 0.8465650753054845 0  0.9136284722222221 1.434461805555556 0  1.732437511238546 0.3406962303960658 0  0.9714402568595876 1.029779313093998 0  1.52281746031746 1.485615079365079 0  2.1875 1.71875 0  1.06819722569879 0.2997236128493951 0  2.136114211309524 1.303478422619048 0  0.3125 0 0  0 0.3125 0  2.5 2.1875 0  2.1875 2.5 0  0.3200021620376328 1.192323085056694 0  0.6738456129277992 0.8304377375553881 0  1.757891808928991 1.861952730357003 0  1.5625 0 0  0.9375 0 0  0.3125 2.5 0  2.1875 0 0  2.5 0.9375 0  0 0.9375 0  0 1.5625 0  0.9375 2.5 0  2.5 0.3125 0  0 2.1875 0  1.5625 2.5 0  2.5 1.5625 0  0.7448220909826522 0.3003573636608841 0  1.027298850574712 1.871151477832512 0  1.331260495098891 2.197262878816185 0  1.207917681892289 1.582765010956622 0  0.4339993447432606 1.801186844743261 0  0.6337298768939392 1.443093039772727 0  2.049851190476191 0.6826636904761904 0  0.6584821428571428 2.219122023809524 0  1.89575676467455 0.9798457973793544 0  1.437570562095628 1.059380588255917 0  1.502090052505845 0.6987070896496241 0  0.2040860661083546 1.705323965099331 0  0.2083333333333333 0.46875 0  0.5070952039991439 0.2211150679997147 0  0.6916302856529919 0.5813591430410241 0  2.265625 1.953125 0  2.2265625 2.2265625 0  1.886424081252096 2.243391360417365 0  1.40625 0.202164758520858 0  0.2269345238095238 0.2269345238095238 0  1.152730869673694 0.5225850378741401 0  1.885631899587912 1.312095130148776 0  1.614808884009367 0.9049784971014416 0  1.890095442220658 0.5126535558463003 0  2.323168682795699 0.46875 0  2.268811725689575 0.2304742875213018 0  0.6002389442105756 1.967426444210576 0  0.1768313172043011 2.03125 0  0.2311882743104251 2.269525712478698 0  2.03125 0.176831317204301 0  2.280262553344767 0.6954945504579233 0  1.979219539285994 1.809922269642997 0  2.336309523809524 1.09375 0  1.09375 2.336309523809524 0  0.9314042474388009 1.662973812215543 0  0.1634067999087722 1.40625 0  2.337090640094896 1.40625 0  1.141616997467638 2.069311773587991 0  0.46875 2.338939559681489 0  1.542440307908715 1.734944797244472 0  1.556713687786879 1.956977865354753 0  0.8264238995344066 1.975424467820646 0  1.466326331454725 1.275271369760862 0  1.655675324257095 0.5444159974393489 0  0.3385416666666666 0.6479255698005697 0  0 0.78125 0  0.5236073939200119 0.984090461540625 0  2.091665741047893 1.519793517904215 0  1.71875 2.5 0  0.5356538886262603 1.623137930505009 0  0 1.09375 0  0.1932884281517095 1.015625 0  0.8569313582417669 1.2198915584249 0  0.8876981284879677 0.8329884081524883 0  1.115618488474214 0.7219586973356271 0  1.186950366204949 1.043465130075318 0  2.057459118787237 1.110823087309335 0  1.830651283878689 2.049810069572418 0  1.689107969301489 1.367247437031697 0  0.4921048768039656 1.298643370653124 0  0.8213975694444444 2.336309523809524 0  2.03125 2.5 0  1.049729400480002 1.283723261332814 0  1.308101375801673 0.6489479469700392 0  2.5 2.34375 0  0.4968777175037714 0.7562964879736076 0  1.40625 2.5 0  1.501347663534097 2.307027627307738 0  1.602813712048603 0.1926218191360736 0  0.8393082906308107 0.463778306132633 0  1.682663349152719 1.598471865581041 0  0.7774174680851571 1.560004941327907 0  1.554204170364662 0.3898593897892066 0  1.842184459051087 0.186443880058197 0  1.358107417651776 1.696381759610015 0  1.18859291992392 1.77598670078022 0  0.1875331222687418 0.7609599743339348 0  1.339536743965101 1.422080365801479 0  0.7788179348750389 0.9955343414928611 0  0.9062978492805438 0.1919636509126373 0  1.256007360640958 0.3160320559396114 0  1.09375 0 0  1.174986727221844 0.1594990293443933 0  2.34375 1.796875 0  2.318026474511116 1.589177949022232 0  2.34375 2.5 0  1.672742954892153 2.332882724550692 0  0.2683637361947215 1.874801596909639 0  2.174770749820102 0.5581009131310781 0  1.443279522965991 0.8870068372898454 0  0.3385416666666667 0.3571428571428572 0  0.78125 0 0  2.060421048269335 2.314363248763811 0  1.088078737088509 0.8967352118723447 0  1.087825368444708 1.454931510884769 0  2.018308232129541 0.8548495425854904 0  1.943987311736842 0.3246298523011434 0  1.71875 0 0  1.85337849796276 1.144833312386208 0  2.3486328125 2.1044921875 0  1.407588788651747 2.042968789119587 0  2.336309523809524 0.865366648092144 0  2.34375 0 0  2.5 0.15625 0  0.15625 2.5 0  0 2.34375 0  0.1638044648294291 1.242263417405867 0  0.356216654757926 1.032569427322806 0  0.3188217956111817 1.355736727000647 0  0.5924956460852111 0.36112522004736 0  0.6594216488965849 0.1603472116132387 0  1.841804599497131 1.72214349266521 0  0.15625 0 0  0 0.15625 0  2.115898634821499 1.894570904464496 0  0.7821877980253907 0.7129993435924866 0  1.003820447087786 0.4516053462784233 0  0.477562948779147 1.138333049293613 0  0.719493678605015 1.305655360135975 0  0.9772457618587566 2.020350128938537 0  0.8764738248887107 1.826219722709673 0  1.254787875123819 2.339010653832026 0  2.343597354852534 1.249982759769001 0  0.78125 2.5 0  0.46875 2.5 0  2.5 1.40625 0  1.09375 2.5 0  2.5 0.78125 0  2.5 1.09375 0  2.03125 0 0  2.5 0.46875 0  1.40625 0 0  0.46875 0 0  0 0.46875 0  0 1.40625 0  0 1.71875 0  0 2.03125 0  2.5 1.71875 0  2.5 2.03125 0  2.005424054645407 1.653223486966518 0  0.1538730573856537 1.559850281736677 0  2.33984375 2.33984375 0  1.166539506212474 1.922878979538754 0  0.3914885633949916 1.65887232812171 0  0.5795503163042564 1.766243562569382 0  0.399533125920212 1.946786875081388 0  0.7866324979014098 2.127719094551316 0  0.3654683023546834 0.1495701132219454 0  0.1527388747131078 0.6116379440619215 0  2.013737577140188 1.391056634712135 0  1.17635437372994 2.213329084238133 0  1.737118141866284 1.010577140843115 0  2.200707118087222 1.164723314085963 0  1.697018908736685 1.993548551451517 0  0.5387621649009668 0.6070503962352419 0  2.032805785855952 0.5330427622570983 0  1.082699501358059 1.667818725183932 0  1.503819781540653 0.5468420196858188 0  2.015409142866072 2.175941657590429 0  1.752057611265444 0.869642097111018 0  0.612251684107783 2.356045720700959 0  1.902817102342857 0.6607642211999982 0  2.159616561739693 0.7867739969338844 0  0.5120038350106624 2.197302352398502 0  1.888200216011548 1.919501662489862 0  1.495909909726654 2.16028358757309 0  0.489139876703609 1.443203008943564 0  0.8819175670410521 0.3301172743913011 0  1.882591144370812 0.8155965192707721 0  1.133979796994841 1.172526771862882 0  2.206217447916667 2.084147135416667 0  2.20361328125 2.36279296875 0  1.395746985657004 1.556054166359645 0  1.704383111516207 1.734750450338683 0  0.9575737847222222 2.36274223823052 0  1.035150984253136 0.1302833343179028 0  1.383966125325753 0.7651479963479179 0  1.64003252158672 0.6824316405528895 0  2.22550785055421 1.487078576356817 0  1.760964431499756 1.48495222505201 0  1.276460980673788 2.004207003584658 0  0.1341477688427096 1.828777507920502 0  1.542261434180652 1.155296658359034 0  1.334627911613854 0.9696897472490321 0  1.30794231473696 1.119420615785191 0  0.7028260459857245 0.4438906910721139 0  1.625757433094055 1.84268057552138 0  0.9818707849053143 1.165603626132254 0  2.0086489901463 1.243134585689553 0  1.934584460420609 2.374094051915812 0  1.798434376789567 2.38671361912528 0  1.206314791201715 1.382064292497919 0  0.6333752893366955 0.7023738550008095 0  0.7796219811205605 1.42573253164258 0  1.564399711917382 1.026040828857629 0  0.3385416666666666 0.4889012896825397 0  0.1041666666666667 0.390625 0  0.989112246382566 1.543537365516289 0  2.025724425454636 0.9846960595520872 0  0.6602885475034063 2.086117390485779 0  1.607130551925032 1.267198646640915 0  0.1317864544877056 0.8896173683400176 0  1.755387840017567 2.230364320056445 0  1.301540702984401 0.1216289692748247 0  1.433170657577442 0.3331052752740999 0  1.500459610550388 0.113513924782439 0  0.6494291520606965 1.029586599619295 0  1.010146149868299 0.794897284196169 0  0.3700844198238017 2.235390157870766 0  0.3360891767780704 2.36656279435396 0  1.876856241037701 1.437150669863757 0  1.778674102957329 1.245979347269706 0  0.5472829890977179 0.1005517127039925 0  0.4669074189005698 0.3416784232954367 0  1.472765289289269 1.850899166481903 0  1.555853593327178 1.608452097912802 0  0.6708955559113426 1.646561631116984 0  0.8164699620322933 0.5924479455478063 0  0.3167738989468366 1.758696809749795 0  0.2788007305565096 1.605499483471246 0  0.7821720982350511 0.181524936294752 0  1.376812251214195 2.313340247908297 0  1.785652202614777 0.5962261755537186 0  1.761467296310972 0.4679567244718574 0  2.2265625 1.8359375 0  2.3828125 1.9140625 0  0.5279531607054191 2.071552361614785 0  2.397573269551114 0.234375 0  2.383578172599618 0.3589298466020009 0  0.1024267304488855 2.265625 0  0.1164218274003825 2.141070153397999 0  0.2696857594953064 2.135405441512016 0  2.164961300137334 0.1375322943529536 0  2.137757548369486 0.2724194778647587 0  2.238873711826398 0.3626419179496562 0  0.1001414910226386 0.234375 0  0.2176339285714286 0.3478422619047619 0  0.2503620791333544 0.1061694061057066 0  2.336445461915368 0.1250451055247424 0  0.2154004640409726 2.3918124
[...]
<PointData  Scalars="f_49-3"> 
<DataArray  type="Float64"  Name="f_49-3"  format="ascii">-6.2049226997374740e-23  4.0511644680544083e-10  4.5510174713300873e-39  7.9145722346223892e-34  4.5068546523721833e-19  1.6260143959311536e-34  7.3013095200498824e-23  -1.6738916680129798e-06  5.4021124410104621e-09  -1.0094325781826145e-04  1.5076729097757138e-12  -2.7915347306526424e-23  1.4718921903346901e-13  3.1003355885817990e-39  7.2051102174222502e-28  3.7851720502499391e-32  5.1429699951817130e-26  2.8581644873497288e-23  6.6723003091589947e-11  3.3257907031587944e-10  8.4078108182094787e-19  2.0929514569831259e-04  9.4997370007054694e-14  3.2936941822611138e-08  2.6911660332966337e-23  -5.3372218601471663e-10  -3.2343923852540542e-22  3.6710995795045084e-17  8.9550074460817023e-31  -3.0674270653737714e-31  4.4847394921957582e-17  8.3271754289863074e-17  1.4240255158084335e-03  1.8687134360292137e-19  -4.8434514222331583e-12  6.4605357307357517e-07  -2.3415017279258519e-27  5.5109227212561535e-06  4.6925228281632884e-13  3.1709671086790721e-25  -2.3581110868013121e-16  2.5408802772530162e-28  1.0218919232152659e-10  6.5076781680019151e-07  4.4656329459368269e-32  7.8920145539276881e-30  8.9392473108705186e-07  3.4723303959664510e-04  1.9254431972718821e-18  -1.6452984417546162e-23  -3.3702242278032845e-15  -1.0343347817509275e-23  -1.0753880557215168e-32  1.0771294390910434e-37  -5.1454402121533702e-05  1.9213412472859331e-10  -8.1760079540703276e-25  -1.8205258100289984e-38  5.0276954852832298e-19  8.7504915712567522e-24  8.1270427354225102e-35  -1.7317227038598535e-12  3.7461544172474976e-12  5.2747333768090574e-18  5.0471311925472666e-10  2.1379948239621091e-12  1.1122577973847573e-06  4.1575653950143096e-30  1.4452831125143483e-19  -2.4377846977275658e-23  2.3638019891088397e-12  -2.4854608349837059e-18  2.9964851075580922e-11  1.5472021384681299e-04  1.2990730839216911e-11  2.7651696746699515e-07  4.9272401707126704e-27  1.1121875601956167e-27  2.6158101320316417e-23  1.0608687637974958e-20  6.5985162872669769e-10  -2.8173086964564505e-15  2.3061582178893027e-20  9.4337054272198806e-19  3.8128533377332438e-27  2.9826072697929093e-36  2.8543594466893669e-35  1.0138042025907408e-14  2.5249976093650377e-16  -3.7453947391206561e-20  2.4525450879451074e-30  -1.1381658726141009e-34  2.1020236631939596e-21  2.0537007899165248e-32  4.0635826014773184e-20  2.3687929350736960e-09  -4.5668571886107016e-08  -1.9266098871497280e-30  2.6260152243487023e-15  -5.0404540768775101e-21  1.3832847617189388e-14  1.3640740466251488e-16  5.3055458514038137e-14  5.7846675687195032e-12  2.6029077266393233e-23  2.3190834165221271e-03  -9.3245944852281246e-05  1.2748593075971040e-03  -8.7901523015302434e-24  1.3054537533157953e-24  8.2696939615842600e-10  -1.3774677228195324e-05  -3.3487408885250141e-05  2.1254881372445625e-05  4.0806335636792749e-06  -8.5161605560658116e-11  1.4598298013987123e-08  -2.0031783021441102e-26  8.3033462209305483e-21  9.2438227978481396e-16  9.0926219346772242e-06  3.2303906225502797e-21  1.1637724228655037e-27  2.9673045582644686e-07  -1.3374355023201814e-15  7.6787899908216059e-33  1.4576981529507605e-03  5.4265170736008157e-23  1.9527261388444614e-20  -8.0454561273175995e-25  8.7141700414613181e-12  8.5257010681789934e-16  6.1079810359774016e-08  5.3945335233267488e-22  -1.2053027354989985e-27  3.6334072781130466e-12  1.4130006231410029e-11  5.9467956075972953e-04  1.5030871952605374e-10  1.9815366233096258e-04  -8.1539036346458207e-15  -7.9718694605351413e-19  -6.5164369556148038e-17  -1.4938435180884327e-17  1.6847130514815432e-28  -9.6444945537293075e-29  6.0480383275283894e-32  5.8574351555278201e-22  2.3164929062599275e-13  -1.8271785788372268e-32  -5.2982664518810229e-15  3.8821081192376955e-08  -3.7359663879444189e-14  2.0261054202940787e-26  2.9979371675720788e-08  3.4537329389392496e-08  3.9820365195177470e-28  -1.9022506123257434e-28  -2.0480503209728642e-25  -6.7956786967391068e-21  4.0296159976357718e-29  2.6565698088942570e-16  -5.7813070925429392e-34  -6.2135889577506138e-35  5.3391738908024103e-38  -2.0274885023751717e-23  -4.4075130741239670e-21  -1.5567818934465720e-06  1.7689116212943128e-04  -1.4143655765778830e-07  1.4608399049447548e-10  1.8013557496927456e-13  8.3160433507491706e-19  2.8096687112202023e-10  1.0754476243167237e-08  3.3642686944820866e-24  2.8936463068713243e-06  2.2354685700269492e-13  1.9505346664086648e-04  2.0182875460133736e-05  2.5044517640226946e-14  2.4076400659402475e-11  6.3430869411950361e-20  2.7756134468110708e-33  -9.1660218019039634e-24  -7.2163555605411260e-24  -1.7048903608572659e-35  1.8700659193943017e-23  -1.0909987051890764e-38  -7.7023450639231763e-36  3.7762271458175874e-30  -8.0831297115886863e-39  1.2787573537051547e-21  2.1815804229420404e-11  -2.5264493352818807e-05  -6.8414903178699401e-08  1.8741918743824944e-11  9.8024740510796920e-16  -2.6202529535133571e-32  1.2282009870900428e-31  1.6394791368683864e-21  3.7957796169265856e-10  3.8541088464612601e-30  2.4743855945887531e-13  9.6380118391133139e-11  7.3145580555113247e-12  1.5303271520017670e-14  2.4809018947586066e-17  6.2798069788090470e-11  3.0620253715437752e-03  -3.1705839264367267e-23  1.5681195698092567e-17  2.6528997431183722e-20  -7.4977629209997112e-30  1.4584468848846366e-18  5.0295946219571214e-05  -2.4271450090175774e-30  7.1541421310790973e-10  -3.2815093919521188e-20  2.5601401725056602e-24  -4.6101086237524019e-21  -1.9402816888868772e-21  -1.2023656629012921e-27  -1.3113455264326092e-30  4.5092261992381881e-19  1.1958732888824890e-20  2.1740238865317835e-18  2.0421633881328280e-07  -6.1647150118515739e-14  -1.7486773200453761e-24  1.2852790732620068e-07  1.4705241309757338e-26  6.7081903377663691e-29  6.3136479314815153e-12  7.2909112332502024e-17  2.1599929836582747e-21  -5.4851228954709473e-16  -7.1595368197970602e-15  5.6960625700498642e-21  -3.5063361150227343e-27  9.1657653935586884e-17  7.4125622592691561e-15  1.3100516284426568e-12  3.1525885064004837e-14  7.1284805683413736e-12  5.1573669425659033e-10  5.5545266658793486e-10  2.2311342279110552e-16  3.9566835598662224e-06  1.2949614424040403e-23  4.6140767065592655e-25  8.2569596633067441e-24  6.5957909224951663e-09  8.9787167006687992e-05  1.7577612573417832e-06  -5.4291503282541726e-17  2.0248217649384199e-05  -4.2489918282172937e-05  3.1435975953299226e-08  -5.9359889548298448e-26  6.6129918933009066e-17  1.9488410018560187e-14  -7.1889342588336242e-05  2.4892493660078824e-21  3.3995072993054023e-21  1.3235736489381658e-20  1.5104027712375480e-22  6.1420836135561935e-04  2.2465491753025287e-08  1.6876391802411002e-20  -6.7929831676996529e-22  2.6445207637950816e-19  6.4170980421904324e-19  4.5244355455648602e-12  9.0130846949282863e-11  9.4061195971296404e-15  2.8416230625347319e-14  2.0914488559381802e-09  1.0389358454592110e-08  7.4912257469827163e-12  2.8243429440715209e-10  -5.2880853989407241e-14  3.7814556848873435e-20  -2.9698922828028492e-25  6.8143688604892840e-25  8.5566945514713060e-26  3.9291648111470962e-29  1.8739043672466066e-16  -4.2797854002808829e-37  -8.3305728928854478e-37  -6.9592431609713802e-20  7.3604355137445194e-18  8.8998840969252132e-18  2.0598985176046639e-32  3.1001767228435295e-32  4.8073673281215777e-34  -3.7097098701965310e-08  1.1617563858214804e-06  1.8449566378525989e-10  -1.2295622271055485e-35  -1.2391089363259278e-21  9.6298925397399232e-18  2.1566352693940569e-10  -4.3823103253225504e-25  1.5117534065208785e-12  3.2860065272209367e-18  2.8281448901663749e-16  4.8431407573821121e-15  8.4516113338322009e-15  1.2501107098428148e-04  1.1426575179324279e-14  6.6581882411612623e-29  9.1914100418561264e-37  2.2406569070438716e-36  2.9429730557819470e-30  -1.7351470070634404e-08  2.0391604206025443e-13  1.3345802396291816e-13  -1.1953257671909232e-17  -2.9505627238531795e-25  5.2310966045300383e-13  -4.6363180779980258e-28  2.2402464613262125e-03  1.9422188549920896e-09  9.4135652944538821e-11  1.2900612456970358e-32  -2.1912529363663502e-14  -1.1348312477465854e-30  1.2761624965419311e-16  -7.8762788431743743e-06  3.9668720845658266e-34  -6.5849680059257252e-05  4.0344762251808519e-05  8.9075836604696312e-23  3.5164883733205623e-22  -4.6901066441281930e-29  1.9802458535220292e-21  -6.8224330128751114e-09  -3.6718803158519457e-07  -2.0657892561280723e-32  -4.1204718240727120e-30  4.5550998305632831e-05  -3.7445870108461455e-24  -1.2703017797646559e-20  1.7321966479386669e-22  -1.3345396021183264e-26  -1.3564621351581181e-30  4.7616535516253428e-18  1.2160353014245940e-11  -2.8230080357814786e-22  3.1707632688900469e-06  2.8792597317620432e-03  1.8892822286693340e-04  2.3629449977024919e-03  2.6707474356042486e-23  1.3484375350424849e-10  -4.9482731810445765e-06  -1.0638394540379353e-33  1.2593265009059102e-33  1.7046596477759134e-21  -7.9682528372613830e-22  3.9142531694751336e-32  7.7124454670843516e-21  1.6013174260444921e-25  8.6983515510331357e-18  6.6643188455000650e-28  6.7883357343401329e-22  5.7769258310880779e-20  2.0926913271524542e-15  7.5061795114433351e-13  2.9359435925847766e-10  -6.1680780092292845e-09  3.8647210378337860e-10  9.4392184207444256e-26  3.7959762524681270e-13  8.0661228595092283e-07  2.0515732662189877e-09  1.8750274114791787e-22  1.0192108401976916e-03  1.5582027170497933e-07  3.6020987865030233e-05  1.5171337695196857e-06  -9.2747556004391724e-27  6.9548180782852151e-06  4.5383586144747978e-11  4.4228921721645854e-09  1.3993065687366552e-13  5.1930910210201712e-16  5.5321285002458130e-33  9.2628427879577781e-08  3.5111978690608599e-18  1.3278137644905121e-12  4.1393436992526477e-19  8.8723244640602722e-05  2.9264373209273337e-05  1.7578635166302943e-25  7.4706590075480104e-12  8.4299962242626532e-24  3.9428391695479520e-28  3.8377889013254669e-07  3.5432741018221140e-03  -3.7756262425737027e-05  -1.1996123571790511e-24  -1.0951498877306139e-27  1.3914734272639471e-10  6.3747465809268957e-27  5.5071290252620296e-22  2.7381793291733175e-08  1.4214576150930504e-03  -2.6920404266354973e-36  1.2752501192375068e-13  -5.6378563662397845e-14  -2.5279312281802876e-11  -1.9931705813882619e-33  2.6755133337044668e-11  2.8136522341932609e-09  4.7299365458325910e-18  7.9051305991946475e-04  5.4715425031553317e-04  -1.5023501502678765e-23  4.0374079672267217e-08  4.3302158890347265e-15  7.7646640328899952e-20  6.6053035665888517e-20  4.3050951341852529e-06  1.3050656669657780e-05  5.1001146632555685e-13  2.4181471019726454e-17  2.5690107594363679e-19  1.1702864843303278e-21  6.0316778300835402e-14  2.6589454459732550e-09  3.0690880682849682e-23  2.5662406596511029e-21  -3.3009472208431070e-31  -5.9499729903071771e-19  2.5776073055190281e-15  7.5150614725242715e-21  4.7932684985438041e-17  -4.3700692065886566e-14  -1.5692533966621735e-34  1.7197089900063286e-11  3.7435381061041240e-07  -2.1414600929411562e-26  1.7942840282775496e-30  3.9462985630756361e-04  2.0342140810816317e-15  -3.3960717685486388e-17  -2.3688085896747378e-15  -1.0908632604160981e-33  1.0504129506875800e-10  -1.5492669638230818e-05  5.3346105895505740e-19  4.3171334210316028e-29  8.1790814829732856e-32  7.8440368379514414e-25  -1.8187867204040039e-10  2.4900152006878005e-03  4.6592652416169628e-08  -9.6049867791259751e-05  1.6592906930024878e-13  5.0122614283883845e-21  -8.7150536379537761e-07  -3.3257236479697165e-33  1.0732065059259274e-30  3.3817573144441426e-07  1.5396601889460554e-19  1.2782814330449328e-03  -6.6646796938388142e-22  3.4813203163865944e-03  9.3892708900360985e-30  1.1667822626058390e-11  7.6021730005961623e-11  -1.3754866718268989e-17  8.6887166591376526e-21  4.0924905229326242e-20  1.9286251367512013e-12  6.5271446398155692e-13  4.1218255543706665e-11  2.2055733156013319e-11  -4.4603701987017791e-24  7.9802432748658043e-25  2.5091340492449409e-27  -1.4644946638686836e-20  1.2369123100521283e-04  3.7695983831275306e-24  6.7678242999417500e-09  -1.3385619073329127e-16  8.1093930453271984e-05  7.6938308253819533e-18  2.4439118864849160e-07  5.4862850624974775e-21  2.5761284579959307e-23  -8.3947059323293728e-16  -2.2972527345511795e-39  6.0132392366483773e-30  2.9423731007326788e-21  5.9057356556103920e-22  8.8984275403500267e-14  7.3385393032879660e-25  4.3656727205704260e-29  9.2368793825305510e-16  1.4679178087129233e-08  4.1395022824363884e-11  -1.2783736864653172e-39  6.8976674830917865e-38  1.1848160551638516e-21  -3.7105616251160333e-15  6.4782014710638857e-13  3.1179924410883300e-12  -6.3696945378219375e-22  1.7508897345756434e-26  1.9079566792839823e-15  9.6589724966220811e-17  -2.8827953909162430e-12  6.3304052138528821e-04  7.0598758401762752e-24  2.0836326387901756e-12  4.0973922980389846e-15  -1.6660999138968602e-22  -5.4381377825634961e-22  -7.3274329727869109e-17  -6.0799125791930852e-14  7.2311695170516918e-10  2.5891172009635581e-35  8.8922014755792195e-19  1.6104568786820723e-12  -4.2370734854043925e-19  -3.0899866068222455e-22  2.0692572311789196e-19  4.5508683818307115e-16  5.5012874771125732e-24  2.7764024791704484e-31  -1.9479175207896185e-18  -9.1688585040557257e-39  6.1474347496247156e-28  -5.6501105537821867e-29  -4.8067733388422293e-25  1.9275248899428714e-30  1.9962658253214115e-27  -1.2399695124231569e-30  5.2416892535831148e-38  1.1769231549046603e-16  -5.5074009970829755e-32  3.6320321870061419e-06  8.3414212853602377e-05  -3.5746681296301123e-18  1.1092982011703925e-20  1.8936618412889158e-23  1.7157359609587207e-16  1.5067920759833748e-30  6.7207019608227121e-28  -2.6935022619207590e-13  7.2796720203838888e-15  -4.6003638044452922e-36  -3.1668290785748815e-19  3.2452892590457270e-10  3.4654574608876043e-13  1.0897874581988795e-20  2.0380241063013268e-19  3.6467770152415280e-34  -9.8847132491195912e-09  2.4896849339136863e-06  6.9459258897331742e-09  2.8837742298963373e-12  -2.0933567035452317e-38  7.2821712198151255e-17  -7.2546520406170718e-05  -1.3909913547989600e-37  -1.1718843859724582e-20  3.8795304175271433e-22  5.0834537835962836e-24  1.7281182265523317e-17  1.8855107871728726e-31  3.2792384547762808e-13  1.0044418613939680e-22  3.4973605747624188e-30  6.3119839769995936e-04  5.0939832988201332e-09  1.3773817022993008e-11  -4.3228400722543066e-30  -1.2384838609022565e-35  1.0041650289869159e-10  1.3466848880645498e-17  2.0113742440253162e-12  -2.4657439707722752e-20  1.1161142904848324e-32  1.6487615859828245e-09  4.3130082864538191e-05  7.6774696735280829e-06  7.8509643978408594e-16  1.1789745847463696e-07  5.7509313772088379e-10  1.4108793471395300e-14  -1.8761279536193709e-29  -9.0688234414693492e-24  -1.2613414483772357e-10  -1.5199246581434541e-07  7.0377424712049666e-11  1.0337439210477913e-12  -5.9620320217297101e-13  7.4610401017964801e-09  2.3717668568876155e-11  -5.5362859270874381e-35  3.5075148685158239e-36  8.4996521717693340e-10  1.0738391642094617e-07  3.9141647594930883e-11  -1.5003128797844566e-08  -2.7779795117043594e-07  3.4762502432154416e-18  4.0463533753595818e-32  -8.3298135017676522e-16  1.4413511009399784e-25  -2.5117182196158403e-35  8.3013839214119957e-28  7.3146550715596748e-15  1.2071461350300218e-25  3.1231712571703743e-09  7.5707263808485582e-23  -1.0789820391099244e-16  5.5910121738473215e-19  4.1385626943432473e-20  3.2745977301519233e-10  5.6014206998731737e-10  7.6592322061458555e-24  4.8823334266806379e-20  4.8364435307772230e-29  7.5955713831561769e-10  3.2606026120049848e-17  -8.1594769332199374e-38  4.8667290473146596e-06  5.4483128192318400e-05  -1.2386484412869518e-20  2.2495577899600175e-22  1.2393335814126880e-08  7.9413140977411135e-16  2.1427141615734262e-26  1.0322433921607383e-10  -4.2386235015570151e-34  -4.0482527560491406e-30  -1.5786593281250218e-15  -6.7671350826666954e-28  7.4276608561800646e-04  4.7249399692286687e-11  1.7959740828839018e-17  9.6959690393290547e-16  7.4456391619941824e-12  9.5045477063909366e-23  -3.2559031017038063e-25  4.6027498993726760e-14  1.8695192623271019e-06  2.5025882697068633e-13  2.3601532518263522e-21  -3.0960867989495745e-31  2.5663326451854306e-33  1.4421356004024067e-18  -1.6705782056394514e-06  8.5434980886693447e-22  -4.0037475993552297e-31  -1.7547513762887504e-18  4.5275921221629056e-31  -3.5793047897678264e-24  1.6268343751050002e-28  -5.7706472453491151e-22  -4.3531662586067835e-23  4.2787843913782711e-23  1.2914863289857677e-10  -1.6281289866500675e-23  -2.7048515891330538e-32  2.2936182358126338e-27  -2.5227082759663894e-24  1.0351799417484048e-35  1.7882985203291092e-34  -6.7176321282469600e-34  -2.8745623812169770e-05  -5.0934803685508632e-06  -3.8844870252178078e-07  3.5127181965697338e-23  -9.8990910366587140e-05  -1.4735922009523092e-14  8.4968508430928959e-29  1.4044960044428418e-14  -1.8712780192329211e-23  2.0091952279810874e-10  -4.0532400403588632e-20  6.8934176518639842e-39  8.0685412587789767e-12  5.4286870697552963e-23  -1.2298622318588175e-08  4.1438383658349333e-06  2.3262875270877581e-25  1.7189588161787612e-32  4.8936638763922755e-33  5.1707038877440375e-33  -3.4583740126413120e-09  1.4349437245949114e-23  -4.6987766754186899e-05  -1.3027780525812032e-32  1.0865506507558218e-31  -1.7330096280736247e-38  -7.4172199057452132e-26  1.2465789498568769e-17  4.6306332341593812e-09  -4.2538557459177342e-23  -2.4294474779894493e-19  2.3009381780767825e-21  -3.5559475871948850e-07  4.3129900932978364e-04  5.5442153438844181e-06  1.2443201206462978e-26  2.9766806310960769e-11  1.1266145112667409e-04  3.7778915177931455e-04  1.4346613452004031e-15  2.9947351712664963e-05  -8.5028496954793831e-14  1.0698087882112628e-15  -3.8849932031777823e-09  2.0270213738294701e-10  2.0094397380404038e-10  -2.9652196704876247e-07  1.0423219881439860e-03  4.4678702847121910e-03  -5.2777332093892893e-31  5.3506007603031668e-16  3.2895285531837830e-13  -3.8412718506948371e-28  4.7464201846477550e-04  -1.7929538559987211e-32  2.8516565058149341e-10  7.6080480603641837e-15  8.1225726503076225e-07  6.2838781488814730e-04  2.0487836403881125e-11  4.4932206164943177e-14  2.7446502143657861e-20  2.5686391623917304e-04  1.9843549611128615e-05  -4.7765546735461611e-28  8.9373488489378837e-32  1.7162482842256364e-03  1.7192110218916653e-29  2.4181292627773122e-33  4.9388379058351000e-07  -4.0565828502758644e-18  -1.3946933649659506e-08  -1.7932732563550305e-17  5.9917357063037083e-08  -1.3645802424268998e-27  2.4656759391470460e-10  6.8985970185843637e-11  1.7193237481475074e-18  -6.6624923926089549e-21  1.9406658592530219e-22  -1.7477807676842148e-23  4.6761434411689281e-24  8.8340627559493370e-18  -5.1736566229491576e-08  2.2216406593637417e-15  3.3020283123716796e-12  -6.0658510216400015e-14  2.6314753310375536e-13  7.8820017817483835e-14  6.2662296009795678e-21  9.5022296931032729e-15  3.7225015202673477e-26  -1.6297728473932638e-26  2.3497256637089449e-16  2.9020760713695740e-14  2.9133035133528476e-10  2.1506509438924086e-10  1.7821720367547912e-11  4.4551083053525186e-08  -1.5952941532181257e-33  1.6913038031920069e-18  1.1325733149278285e-18  1.4982544504548183e-19  5.9783879616415006e-19  -3.1903262984305183e-20  3.0304589185992277e-21  1.0101721478078119e-13  5.2880406964091152e-21  -4.0471942655771767e-27  3.7268155037364702e-36  -6.6388367973583036e-27  2.9293841628477336e-10  1.7167783273672852e-06  -2.7952904432629905e-06  2.5196264125550816e-14  8.6062753742635296e-30  3.6134166151447959e-06  2.1376130026237120e-20  1.7722849432445500e-22  2.5279643571351016e-03  -5.9764200976030583e-28  6.1666547058850781e-24  1.0020960669626894e-23  8.2474744679671774e-30  7.7707222677666865e-31  -1.9432913030038113e-22  3.2545965860544643e-08  6.8592810870732726e-12  9.2890646546409973e-11  2.5521584309586123e-06  9.8090290294302222e-18  8.1340723348698372e-20  1.7902081643464409e-12  5.2009231780432441e-36  4.0807793971749549e-16  7.1322301791933000e-10  5.4890629702931393e-07  1.1695255702368645e-06  -8.5608751766928165e-21  -2.2397811376521623e-22  1.7470349635513962e-28  -4.1190240297161938e-23  -8.8146540653299374e-28  -1.5996915524196460e-34  1.7248581288537