<?xml version="1.0"?>
<VTKFile type="UnstructuredGrid"  version="0.1"  >
<UnstructuredGrid>
<Piece  NumberOfPoints="6486" NumberOfCells="12696">
<Points>
<DataArray  type="Float64"  NumberOfComponents="3"  format="ascii">0 5 0  0 0 0  5 0 0  5 5 0  2.5 0 0  5 2.5 0  2.5 5 0  0 2.5 0  2.5 2.5 0  0 1.25 0  1.25 0 0  1.25 5 0  0 3.75 0  5 1.25 0  3.75 0 0  5 3.75 0  3.75 5 0  3.541666666666667 1.458333333333333 0  1.458333333333333 3.541666666666667 0  1.875 1.25 0  3.75 3.125 0  1.284722222222222 2.326388888888889 0  2.683189655172414 3.767959770114943 0  0.9375 0.9375 0  4.0625 4.0625 0  0.7252209595959597 3.026357323232324 0  2.763480392156863 0.9129901960784315 0  1.875 4.345238095238095 0  4.345238095238095 1.875 0  4.192708333333333 0.8072916666666664 0  0.8072916666666665 4.192708333333334 0  3.368055555555555 2.326388888888889 0  0.6837606837606839 1.738782051282051 0  3.285485245626782 4.324328415208927 0  2.551239698778062 1.693130150610969 0  1.827256944444444 2.868923611111111 0  3.464875022477093 0.6813924607921316 0  1.942880513719175 2.059558626187995 0  3.04563492063492 2.971230158730159 0  4.375 3.4375 0  2.13639445139758 0.5994472256987903 0  4.272228422619047 2.606956845238095 0  0.625 0 0  0 0.625 0  5 4.375 0  4.375 5 0  0.6400043240752655 2.384646170113389 0  1.347691225855598 1.660875475110776 0  3.515783617857982 3.723905460714006 0  3.125 0 0  1.875 0 0  0.625 5 0  4.375 0 0  5 1.875 0  0 1.875 0  0 3.125 0  1.875 5 0  5 0.625 0  0 4.375 0  3.125 5 0  5 3.125 0  1.489644181965304 0.6007147273217681 0  2.054597701149425 3.742302955665024 0  2.662520990197781 4.39452575763237 0  2.415835363784578 3.165530021913244 0  0.8679986894865213 3.602373689486522 0  1.267459753787878 2.886186079545454 0  4.099702380952381 1.365327380952381 0  1.316964285714286 4.438244047619047 0  3.7915135293491 1.959691594758709 0  2.875141124191255 2.118761176511833 0  3.00418010501169 1.397414179299248 0  0.4081721322167092 3.410647930198662 0  0.4166666666666666 0.9375 0  1.014190407998288 0.4422301359994293 0  1.383260571305984 1.162718286082048 0  4.53125 3.90625 0  4.453125 4.453125 0  3.772848162504192 4.48678272083473 0  2.8125 0.404329517041716 0  0.4538690476190476 0.4538690476190476 0  2.305461739347387 1.04517007574828 0  3.771263799175824 2.624190260297553 0  3.229617768018734 1.809956994202883 0  3.780190884441317 1.025307111692601 0  4.646337365591398 0.9375 0  4.537623451379149 0.4609485750426037 0  1.200477888421151 3.934852888421152 0  0.3536626344086022 4.0625 0  0.4623765486208503 4.539051424957397 0  4.0625 0.353662634408602 0  4.560525106689535 1.390989100915847 0  3.958439078571988 3.619844539285994 0  4.672619047619047 2.1875 0  2.1875 4.672619047619047 0  1.862808494877602 3.325947624431087 0  0.3268135998175443 2.8125 0  4.674181280189791 2.8125 0  2.283233994935276 4.138623547175983 0  0.9375 4.677879119362977 0  3.08488061581743 3.469889594488945 0  3.113427375573758 3.913955730709506 0  1.652847799068813 3.950848935641292 0  2.932652662909449 2.550542739521724 0  3.311350648514189 1.088831994878698 0  0.6770833333333333 1.295851139601139 0  0 1.5625 0  1.047214787840024 1.96818092308125 0  4.183331482095785 3.03958703580843 0  3.4375 5 0  1.071307777252521 3.246275861010018 0  0 2.1875 0  0.386576856303419 2.03125 0  1.713862716483534 2.439783116849799 0  1.775396256975935 1.665976816304977 0  2.231236976948428 1.443917394671254 0  2.373900732409897 2.086930260150635 0  4.114918237574474 2.221646174618671 0  3.661302567757379 4.099620139144836 0  3.378215938602977 2.734494874063393 0  0.9842097536079312 2.597286741306247 0  1.642795138888889 4.672619047619047 0  4.0625 5 0  2.099458800960004 2.567446522665629 0  2.616202751603346 1.297895893940078 0  5 4.6875 0  0.9937554350075428 1.512592975947215 0  2.8125 5 0  3.002695327068194 4.614055254615477 0  3.205627424097207 0.3852436382721472 0  1.678616581261621 0.927556612265266 0  3.365326698305438 3.196943731162083 0  1.554834936170314 3.120009882655813 0  3.108408340729323 0.7797187795784133 0  3.684368918102174 0.3728877601163941 0  2.716214835303553 3.39276351922003 0  2.37718583984784 3.551973401560441 0  0.3750662445374837 1.52191994866787 0  2.679073487930202 2.844160731602957 0  1.557635869750078 1.991068682985722 0  1.812595698561088 0.3839273018252746 0  2.512014721281916 0.6320641118792227 0  2.1875 0 0  2.349973454443689 0.3189980586887866 0  4.6875 3.59375 0  4.636052949022233 3.178355898044465 0  4.6875 5 0  3.345485909784306 4.665765449101383 0  0.536727472389443 3.749603193819277 0  4.349541499640203 1.116201826262156 0  2.886559045931982 1.774013674579691 0  0.6770833333333334 0.7142857142857143 0  1.5625 0 0  4.120842096538671 4.628726497527622 0  2.176157474177018 1.793470423744689 0  2.175650736889416 2.909863021769539 0  4.036616464259081 1.709699085170981 0  3.887974623473683 0.6492597046022868 0  3.4375 0 0  3.70675699592552 2.289666624772415 0  4.697265625 4.208984375 0  2.815177577303495 4.085937578239174 0  4.672619047619047 1.730733296184288 0  4.6875 0 0  5 0.3125 0  0.3125 5 0  0 4.6875 0  0.3276089296588581 2.484526834811734 0  0.712433309515852 2.065138854645612 0  0.6376435912223634 2.711473454001295 0  1.184991292170422 0.7222504400947201 0  1.31884329779317 0.3206944232264773 0  3.683609198994263 3.44428698533042 0  0.3125 0 0  0 0.3125 0  4.231797269642997 3.789141808928991 0  1.564375596050781 1.425998687184973 0  2.007640894175573 0.9032106925568466 0  0.955125897558294 2.276666098587227 0  1.43898735721003 2.611310720271951 0  1.954491523717513 4.040700257877075 0  1.752947649777421 3.652439445419346 0  2.509575750247638 4.678021307664052 0  4.687194709705067 2.499965519538002 0  1.5625 5 0  0.9375 5 0  5 2.8125 0  2.1875 5 0  5 1.5625 0  5 2.1875 0  4.0625 0 0  5 0.9375 0  2.8125 0 0  0.9375 0 0  0 0.9375 0  0 2.8125 0  0 3.4375 0  0 4.0625 0  5 3.4375 0  5 4.0625 0  4.010848109290813 3.306446973933037 0  0.3077461147713075 3.119700563473354 0  4.6796875 4.6796875 0  2.333079012424948 3.845757959077508 0  0.7829771267899832 3.317744656243421 0  1.159100632608513 3.532487125138763 0  0.799066251840424 3.893573750162776 0  1.57326499580282 4.255438189102632 0  0.7309366047093668 0.2991402264438908 0  0.3054777494262156 1.223275888123843 0  4.027475154280377 2.78211326942427 0  2.35270874745988 4.426658168476266 0  3.474236283732569 2.021154281686229 0  4.401414236174444 2.329446628171927 0  3.39403781747337 3.987097102903034 0  1.077524329801934 1.214100792470484 0  4.065611571711903 1.066085524514197 0  2.165399002716117 3.335637450367864 0  3.007639563081306 1.093684039371638 0  4.030818285732145 4.351883315180857 0  3.504115222530889 1.739284194222036 0  1.224503368215566 4.712091441401919 0  3.805634204685714 1.321528442399996 0  4.319233123479386 1.573547993867769 0  1.024007670021325 4.394604704797005 0  3.776400432023095 3.839003324979723 0  2.991819819453308 4.320567175146181 0  0.9782797534072181 2.886406017887129 0  1.763835134082104 0.6602345487826022 0  3.765182288741625 1.631193038541544 0  2.267959593989681 2.345053543725764 0  4.412434895833333 4.168294270833333 0  4.4072265625 4.7255859375 0  2.791493971314009 3.11210833271929 0  3.408766223032414 3.469500900677365 0  1.915147569444444 4.725484476461039 0  2.070301968506271 0.2605666686358055 0  2.767932250651506 1.530295992695836 0  3.280065043173439 1.364863281105779 0  4.45101570110842 2.974157152713635 0  3.521928862999512 2.96990445010402 0  2.552921961347576 4.008414007169315 0  0.2682955376854191 3.657555015841003 0  3.084522868361304 2.310593316718068 0  2.669255823227708 1.939379494498064 0  2.615884629473921 2.238841231570381 0  1.405652091971449 0.8877813821442277 0  3.25151486618811 3.68536115104276 0  1.963741569810629 2.331207252264507 0  4.017297980292599 2.486269171379106 0  3.869168920841219 4.748188103831625 0  3.596868753579134 4.77342723825056 0  2.41262958240343 2.764128584995838 0  1.266750578673391 1.404747710001619 0  1.559243962241121 2.85146506328516 0  3.128799423834764 2.052081657715259 0  0.6770833333333333 0.9778025793650794 0  0.2083333333333333 0.78125 0  1.978224492765132 3.087074731032578 0  4.051448850909273 1.969392119104174 0  1.320577095006813 4.172234780971559 0  3.214261103850064 2.534397293281829 0  0.2635729089754111 1.779234736680035 0  3.510775680035133 4.460728640112889 0  2.603081405968802 0.2432579385496493 0  2.866341315154884 0.6662105505481998 0  3.000919221100777 0.2270278495648781 0  1.298858304121393 2.05917319923859 0  2.020292299736597 1.589794568392338 0  0.7401688396476035 4.470780315741533 0  0.6721783535561408 4.733125588707921 0  3.753712482075402 2.874301339727514 0  3.557348205914658 2.491958694539413 0  1.094565978195436 0.2011034254079851 0  0.9338148378011396 0.6833568465908735 0  2.945530578578538 3.701798332963805 0  3.111707186654356 3.216904195825605 0  1.341791111822685 3.293123262233967 0  1.632939924064587 1.184895891095613 0  0.6335477978936732 3.517393619499591 0  0.5576014611130192 3.210998966942492 0  1.564344196470102 0.3630498725895039 0  2.75362450242839 4.626680495816594 0  3.571304405229554 1.192452351107437 0  3.522934592621944 0.9359134489437148 0  4.453125 3.671875 0  4.765625 3.828125 0  1.055906321410838 4.14310472322957 0  4.795146539102229 0.46875 0  4.767156345199235 0.7178596932040019 0  0.2048534608977711 4.53125 0  0.232843654800765 4.282140306795998 0  0.5393715189906129 4.270810883024032 0  4.329922600274667 0.2750645887059072 0  4.275515096738972 0.5448389557295173 0  4.477747423652795 0.7252838358993123 0  0.2002829820452772 0.46875 0  0.4352678571428572 0.6956845238095237 0  0.5007241582667088 0.2123388122114133 0  4.672890923830735 0.2500902110494848 0  0.4308009280819452 4.783624996516437 0  2.104871305393774 4.438653689007242 0  0.2274454167838428 0.2274454167838428 0  3.446466574593436 0.4359605369011901 0  2.12354112127588 1.217588426759619 0  2.309175236825235 0.7888355970690434 0  2.556178570281936 1.054299163237582 0  0.578683248637
[...]
<PointData  Scalars="f_800-3"> 
<DataArray  type="Float64"  Name="f_800-3"  format="ascii">3.3851873705970604e-03  6.0365386901724072e-03  3.0835517147757910e-03  3.0668132719290837e-03  4.5660127469712769e-03  3.0806237444692373e-03  3.3388940625372794e-03  4.8146740592109839e-03  4.5523464106891351e-03  5.5557963864866283e-03  5.3117304738722164e-03  3.3219528747007558e-03  4.0654212722260651e-03  3.0807037569663934e-03  3.8220992506881901e-03  3.0850350209979671e-03  3.3297108643329299e-03  3.9430672530834116e-03  4.1941771280349840e-03  4.9398236030092071e-03  3.8232197071935308e-03  4.9140297165665842e-03  4.0573188355585562e-03  5.4625841252827888e-03  3.6209568760887110e-03  4.5004176532491141e-03  4.4064203504565113e-03  3.7249837546733857e-03  3.4673633394396814e-03  3.5540131393809534e-03  3.8262526024009959e-03  4.0528476328090257e-03  5.2638827465483979e-03  3.7269159994963059e-03  4.5372551823654218e-03  4.5913845645350771e-03  3.9874125976423454e-03  4.8873504547737937e-03  4.2296720878898207e-03  3.4543887894600222e-03  4.7821076389125815e-03  3.5113957374792453e-03  5.6840095663856774e-03  5.9325672993448819e-03  3.0856568705174563e-03  3.2973882721287345e-03  4.8833308399602489e-03  5.2451185123489445e-03  3.9350760670690352e-03  4.1876853015619473e-03  4.9355562034006321e-03  3.3674274854994263e-03  3.4498009442706910e-03  3.0767725600110009e-03  5.1843771661774290e-03  4.4398793222854950e-03  3.3347524204081994e-03  3.0820899374149916e-03  3.7442145926016757e-03  3.3349069393437594e-03  3.0812567229903244e-03  5.1686865487285275e-03  4.0773842932859423e-03  3.6879062244160382e-03  4.4122531736841119e-03  4.1564763168939851e-03  4.5873418686501622e-03  3.6103011834848994e-03  3.6643382518368054e-03  3.7978868897869797e-03  4.3447586578573829e-03  4.2656511493901726e-03  4.2703397039086516e-03  5.7325004875940716e-03  5.4522416228976580e-03  5.2199458533196815e-03  3.3611917718120972e-03  3.3873670059133970e-03  3.6147119788452879e-03  4.3784244545613154e-03  5.7304768397612822e-03  4.6845502651151104e-03  3.8140418725755741e-03  4.1340078096744155e-03  3.8007824595649000e-03  3.2872271558596964e-03  3.3535100606226480e-03  3.9588451621298346e-03  3.8792355285140103e-03  3.5966333364103511e-03  3.6341250889009515e-03  3.3343544663477363e-03  3.6921331571260294e-03  3.2720487408552327e-03  3.5299594655322829e-03  4.3223329875677584e-03  4.6281480325159946e-03  3.2711238100355750e-03  3.8413379119431744e-03  3.5144508305901268e-03  4.1613598630614477e-03  3.9663453826233701e-03  3.9519041121691186e-03  4.3042889323131701e-03  4.0795513554345098e-03  5.5236416215864448e-03  5.3702994554213086e-03  5.1271324188621320e-03  3.5698435129233202e-03  3.3328964277643163e-03  4.3687594526659922e-03  4.9987734281395748e-03  5.0991660593633905e-03  4.8433621028661630e-03  4.9802032802987442e-03  4.7275408650825348e-03  4.6347539951881508e-03  3.6028930281520595e-03  3.7958356975303902e-03  4.0451522748848872e-03  4.7550169398304070e-03  3.5197858839442829e-03  3.3241620710639042e-03  4.7391510431637396e-03  4.5005129946460234e-03  3.0769228332090063e-03  5.3902324530201414e-03  3.3376134382768537e-03  3.5609497024282144e-03  4.1413941741114350e-03  5.0565863871425620e-03  4.0428876975279141e-03  4.4467841506504440e-03  4.2016908368526142e-03  3.8550218985240916e-03  4.2703748891700314e-03  4.1861156190375719e-03  5.3928940932344745e-03  4.4435345839823814e-03  5.0878754953987606e-03  4.9749070444511396e-03  4.5557988759068625e-03  4.7490046260003031e-03  4.6510324812983009e-03  3.2681701605766500e-03  3.2958577131892695e-03  3.2098366347990282e-03  3.5234542709717777e-03  4.0649722733062926e-03  3.4599174403555956e-03  4.3409210626307385e-03  5.6050608198929125e-03  5.1244401511877430e-03  3.4937338183094399e-03  4.7567572525474442e-03  4.5639554790557913e-03  3.6481231870404526e-03  3.7339694629902830e-03  4.0044403904699538e-03  3.8494527421739592e-03  3.2573354682533173e-03  3.8718979477218359e-03  3.2688929445744879e-03  3.2643576797312412e-03  3.0834826534748244e-03  3.3913916680531372e-03  3.5577474420822822e-03  4.8220137696276212e-03  5.0708407576917020e-03  4.6869660943545414e-03  5.3508563815230625e-03  5.2705050615249899e-03  3.8536267774331519e-03  5.8707308437433324e-03  5.9663579011405791e-03  3.5320623580952439e-03  5.1055080770049995e-03  4.8608940874183089e-03  4.9444538322156867e-03  4.7466959277854626e-03  3.9013701603069790e-03  4.1293670376464156e-03  3.5238822948039238e-03  3.2629339818996189e-03  3.3401216934205785e-03  3.3328614776005389e-03  3.0819416165509339e-03  3.3340325097843630e-03  3.0776246192872076e-03  3.0780982554600728e-03  3.6357155338567816e-03  3.0838478459367003e-03  4.3753458729065744e-03  5.4973224217117356e-03  5.7408496107286796e-03  4.6260675223768304e-03  4.2525402663404115e-03  3.8648931321391350e-03  3.0831139298002396e-03  3.0858228216590292e-03  3.6690593878121124e-03  4.4432792903442925e-03  3.2526205492007599e-03  4.0151395810093518e-03  4.3271987165067220e-03  4.2004211208162513e-03  3.9855584426098760e-03  3.7735105688414591e-03  5.6207313163051881e-03  5.5707717915591624e-03  3.6606321497289563e-03  3.6769148179516269e-03  3.9878630475528396e-03  3.4316609715119482e-03  3.9004689620446894e-03  5.4031336811885865e-03  3.6294686727297723e-03  4.3146637311945492e-03  4.2617754347467236e-03  3.6030653190461050e-03  3.9673239886117021e-03  3.5100101097803376e-03  3.7868966813148445e-03  3.4798177848757461e-03  3.7014006867256517e-03  3.7895539391268342e-03  3.7292835825157864e-03  4.5841025386652223e-03  5.0060213567600775e-03  3.8099141479661547e-03  4.6913090797145252e-03  3.4200808564739172e-03  3.3758566175217178e-03  4.3564582476107094e-03  4.0115242730218636e-03  3.4920376294744451e-03  4.8200167062239724e-03  4.4090583910761857e-03  4.0999576976496433e-03  3.4059653205806102e-03  3.9573612062846104e-03  3.9164146654424364e-03  4.1214938491010936e-03  4.2206567468183430e-03  4.4671398083371812e-03  4.4942437662666380e-03  5.2190215703854480e-03  4.0469209804325675e-03  4.8540524801302257e-03  3.6639466083544727e-03  3.4692921855951839e-03  3.4602053167621907e-03  4.5813659270168231e-03  5.2925701640811288e-03  4.6037354982298700e-03  4.1954067246032000e-03  5.6811439489366615e-03  5.8244444637004988e-03  4.4622090725159411e-03  3.6409487718517476e-03  3.8196573713547744e-03  4.1427380992415577e-03  5.2407491330162797e-03  3.6434028937299924e-03  4.5033466724818724e-03  4.3443088162338061e-03  4.2635921645396589e-03  5.0715529225461436e-03  4.8510408334819814e-03  3.6367338535202654e-03  3.4823643977528076e-03  3.8227123474117047e-03  3.9413517141378600e-03  5.4041104434461584e-03  5.4945199197700230e-03  4.0911177559442378e-03  4.1873075909715290e-03  4.3427916311324496e-03  5.0830449444066771e-03  4.2087978364470273e-03  4.3901721349417396e-03  5.1248701517682526e-03  3.5518444127226258e-03  3.9256169017112246e-03  3.9557910055879166e-03  3.4069705348828967e-03  3.2227970112884015e-03  3.8381370144615770e-03  3.1990337287884840e-03  3.2186437033411364e-03  3.6421196240494212e-03  3.7458039437686897e-03  3.7561611554238175e-03  3.4770471742653205e-03  3.5075830051107832e-03  3.3876202953599557e-03  6.0884577705330465e-03  5.8547878400645112e-03  5.7586871996326691e-03  3.2732290972656234e-03  3.4914257234646890e-03  3.6675044661827368e-03  5.8763955146090398e-03  3.9962926353592108e-03  4.7916563530410600e-03  4.6807125826113247e-03  4.5349434708121207e-03  3.9385934058319217e-03  4.0938956047766690e-03  4.9560329782317126e-03  3.9857405861670183e-03  3.7521262026101085e-03  3.2283115777946218e-03  3.2126492241750480e-03  3.2144306581754676e-03  5.3438576467056973e-03  4.0468271137659405e-03  4.0452174574001284e-03  4.2260136744963137e-03  3.4613684023266640e-03  4.2130104091001666e-03  3.8562012536447966e-03  5.2562583547293724e-03  4.3069283078037207e-03  4.1984139515433170e-03  3.4683436144753235e-03  5.0310523206690402e-03  3.4036113079054294e-03  3.7797126712882786e-03  4.9503350906136660e-03  3.2119721545608242e-03  5.4631006777567659e-03  4.7823060156608962e-03  3.5860795549054886e-03  3.6613986704003326e-03  3.6841059968082666e-03  3.4326053694205233e-03  4.5694751678799677e-03  4.7214354906360547e-03  3.1742155341517144e-03  3.3720753770641741e-03  4.9885709607974680e-03  4.0954791346857712e-03  4.0770471808728734e-03  3.6980873869097903e-03  3.9107785988502083e-03  3.1756524026951300e-03  3.8501433629707284e-03  4.3735564283911340e-03  3.4596181080282840e-03  4.7307860101916789e-03  5.3954306951035360e-03  5.5722294831699092e-03  5.6172721478849018e-03  4.0795815709454382e-03  4.3471656448457541e-03  4.9056692336114961e-03  3.1740308046957441e-03  3.1746465704068955e-03  3.4252366423308330e-03  3.4940487942006489e-03  3.1636781854372889e-03  3.6953258173562462e-03  3.5112199520775035e-03  4.3967432027730135e-03  3.3874922599326862e-03  4.2283103454322946e-03  3.7918161802230049e-03  3.8454440333420630e-03  4.0098398285624542e-03  4.4314716616316602e-03  4.5403550022357865e-03  5.5872376751801107e-03  3.4991157754417292e-03  4.2558835926259243e-03  4.7775407089190982e-03  4.6294283364996516e-03  3.4268918470492606e-03  5.1938083605223657e-03  4.9905307402113843e-03  5.1118230330039760e-03  4.8806450637227383e-03  3.7029928886090132e-03  4.7178787158516713e-03  4.1890518475580308e-03  4.4394960340723684e-03  3.9605656197025290e-03  3.7882469294165445e-03  3.3404096058801892e-03  4.4711402710935584e-03  4.5554070504389560e-03  5.3306669928570530e-03  3.6549943765195009e-03  5.2113105879740473e-03  5.0113642676109446e-03  3.4705632096920826e-03  4.3216479203760779e-03  4.1019991570878005e-03  3.3249193903374498e-03  4.6507905486983074e-03  5.6917799011631468e-03  5.1253077019931328e-03  3.7241247917114417e-03  3.5269064059321874e-03  4.4445407990020645e-03  3.5473412837868563e-03  3.4772243555987489e-03  4.4569991699687939e-03  5.2964138368122929e-03  3.1683932095450777e-03  4.6372806786575673e-03  4.5837648342033910e-03  4.6639644306281786e-03  3.4455576709356674e-03  4.2606638443050491e-03  4.4604531499087465e-03  3.9195390004260113e-03  5.4923622416684220e-03  4.9983852839196293e-03  3.3256697084035145e-03  4.6670423334625550e-03  3.9885886249362880e-03  3.8088073064116040e-03  3.6449624560797754e-03  4.6782635114117491e-03  4.8453753303032707e-03  4.0859228948473556e-03  3.9427635688738015e-03  3.8710064026644627e-03  3.7326851391651233e-03  5.2169484227026280e-03  4.5183086685689636e-03  3.4262441522664821e-03  3.5733449611302440e-03  3.6273867159030879e-03  4.5494303563503600e-03  3.9209910103633356e-03  4.3843400073385668e-03  3.8474455972005092e-03  5.1724342826792811e-03  3.3492396791459890e-03  4.2356481038961554e-03  4.7750631180300497e-03  3.8863686446938836e-03  3.2876345505963565e-03  5.1704629986981908e-03  4.1056427336762843e-03  4.3805093737417679e-03  4.9028591010126504e-03  3.3572614750054406e-03  4.3024347630685926e-03  5.0048920073656267e-03  3.6408526954197673e-03  3.2623839140337248e-03  3.3909386213737845e-03  3.3331427330579029e-03  4.8538325597125061e-03  5.4101483762806187e-03  4.6502791163172096e-03  5.3493977864865752e-03  4.1916830739708224e-03  4.1700433164795119e-03  4.7843296442708861e-03  3.5435859120846462e-03  3.5788028180693682e-03  4.6708216497890415e-03  3.6056671068762473e-03  5.1491898824141402e-03  4.1759648418209150e-03  5.5030236470073142e-03  3.7447868754475712e-03  5.1262880899864069e-03  4.9898174198590621e-03  4.6642304429641247e-03  4.4548104039687439e-03  4.4558448828335359e-03  4.1750605413651909e-03  4.0769980154818407e-03  4.3602873034552132e-03  5.5083641245098182e-03  3.3462021301197890e-03  3.5514761886319087e-03  3.4507355943014075e-03  3.5947749027150761e-03  4.8758358932159259e-03  3.3348378655520942e-03  5.1481666825824697e-03  4.7557315671369147e-03  4.8574645691392502e-03  3.7543074195290418e-03  4.5093683845842435e-03  4.3049208146352640e-03  3.5554521063103175e-03  4.2431197946155097e-03  3.0763321935208024e-03  3.2834118832161226e-03  3.7766465177983249e-03  3.6971759621940853e-03  4.0301529586690256e-03  3.5263563201197012e-03  3.6878211570917576e-03  4.1333618170980493e-03  4.5952252578990932e-03  5.5908272666164984e-03  3.0818838111355759e-03  3.1824176845687020e-03  3.4346423242238642e-03  4.9266391227392155e-03  4.1138399738313890e-03  4.1669515024452116e-03  3.9020509257403483e-03  3.4320810713341838e-03  4.8673401976271269e-03  3.7980758901981688e-03  4.8766209912535973e-03  5.0497055546588629e-03  3.6981818001630244e-03  4.1586869161688413e-03  3.9382511159017893e-03  3.4177875034587879e-03  3.4241507742189879e-03  4.7193188242612705e-03  5.0734642210036231e-03  4.4659914425750034e-03  3.3138859700644445e-03  3.6743314128755474e-03  4.0565547746214846e-03  3.9573069987786369e-03  3.8826637162586932e-03  3.7806364538663165e-03  3.8789391804482515e-03  3.5080834944361118e-03  3.5456517833443633e-03  4.5977771058701190e-03  3.0803754626453480e-03  3.5697296954100232e-03  3.5945909749429046e-03  3.7149720449238329e-03  3.1742410849907692e-03  3.3144890795202922e-03  3.1881002173348039e-03  3.0804946197446098e-03  3.7464532061213533e-03  3.5386005564362532e-03  4.9905577611093913e-03  4.9719715452400965e-03  4.0947783775501217e-03  3.6238615683184309e-03  3.4303895106970977e-03  4.0423645040153005e-03  3.1696122218302066e-03  3.3444907545049220e-03  4.4425916386910584e-03  4.3625005238149238e-03  3.3061762032799325e-03  3.6911580828138850e-03  4.2324174123118822e-03  4.9555132953821033e-03  3.7220144208068716e-03  3.5751339838731386e-03  3.3741274896697394e-03  5.6628819386316410e-03  5.7755652557658346e-03  5.5276191394301386e-03  4.0940450500698035e-03  3.1719110461293437e-03  3.9512373699649144e-03  5.2770215002239072e-03  3.1749018979911436e-03  3.5644140651518324e-03  4.2437721726788459e-03  4.0251613188532894e-03  3.7694717770998115e-03  3.1658786380945360e-03  4.2723187881813889e-03  3.5629094945990691e-03  3.1794294056784189e-03  5.3150649174112056e-03  4.5056352700646850e-03  4.2771195852240257e-03  3.3669564518729093e-03  3.1705103222342216e-03  4.1967874444942188e-03  3.9712791264867008e-03  5.3676228544611527e-03  4.1753926181698200e-03  3.0852833728473301e-03  4.5247918422648466e-03  5.1169075182413452e-03  4.6826083382677484e-03  4.0857387868098042e-03  4.7840021352121972e-03  4.5355287056337542e-03  4.7566315166909824e-03  3.3715697150186884e-03  3.8192154362948275e-03  5.6825097719012752e-03  4.6878407611865907e-03  5.2464480609288574e-03  5.3074432634064575e-03  5.2342932305935175e-03  5.4107305906831750e-03  5.4154466024172194e-03  3.1731203240022454e-03  3.0775634147582271e-03  4.5109533409967610e-03  4.5560393120261580e-03  4.4406424317596305e-03  4.5945728037660180e-03  5.9524449216815005e-03  3.9256799159853974e-03  3.3002869303810963e-03  4.8426982417922758e-03  3.4404868676072686e-03  3.3761976605452635e-03  3.3342141341460908e-03  3.9609911792303021e-03  3.5309550201501187e-03  4.7597972061565698e-03  3.5985996655983946e-03  4.3119404533811133e-03  3.5999753925646119e-03  3.5260030140082991e-03  5.9611823146084476e-03  5.9732200001711092e-03  3.5626982159685898e-03  4.4692991231168331e-03  3.2975703757067380e-03  5.7940830504821456e-03  3.8112363335889117e-03  3.1629230663080300e-03  5.1867144759734250e-03  5.2025316964164270e-03  4.0397750640587086e-03  3.6138899129429971e-03  4.3781420703187472e-03  4.7746905572709471e-03  3.3284867156513666e-03  5.6675451354065466e-03  3.4186041415916642e-03  3.6349595254682849e-03  4.8781351348159046e-03  3.5040137408669523e-03  5.6147549926888665e-03  4.2941190646587834e-03  3.7484083770172503e-03  3.8688865413732169e-03  4.0999075664054389e-03  3.6751983712755526e-03  4.0020015844379536e-03  4.1550562506566351e-03  4.7995009681282268e-03  4.1455727383149302e-03  3.7251390378415837e-03  3.2669423542400636e-03  3.1672186242132274e-03  3.7863327071519736e-03  4.8136733584141708e-03  3.4260324620013741e-03  3.1701759613608905e-03  4.6574611759354458e-03  3.2642074817668017e-03  3.3395196917007670e-03  3.3192369127272698e-03  3.4650486821800170e-03  3.3779809504564913e-03  3.3450594822525760e-03  4.3457794877010923e-03  3.3494388570872139e-03  3.0821732323744141e-03  3.9135501510445415e-03  4.0961206505745517e-03  3.0795117287640587e-03  3.0814092174761844e-03  3.0816103411491751e-03  5.0917995600913805e-03  4.9066687190281785e-03  4.7208579416531653e-03  3.3354360047624207e-03  5.4635936940028145e-03  5.0311468788708643e-03  3.7283287907264248e-03  3.9700583129894836e-03  3.3811621887478980e-03  5.7765912092976176e-03  3.6542028504063209e-03  3.0836125590679281e-03  5.4044584685738707e-03  4.2820437389150222e-03  5.9971003252846412e-03  5.8330796831230327e-03  3.3297984490304440e-03  3.0805681601947621e-03  3.0760145248715670e-03  3.1437777964612788e-03  4.5333826973258246e-03  3.3356016025053170e-03  5.6489048803781538e-03  3.0845913856571787e-03  3.0885607725420657e-03  3.0824826084089470e-03  3.7924926876115816e-03  3.6882044198312393e-03  4.3641224107691797e-03  3.4267498788765091e-03  4.2988215554750934e-03  3.4457970803573185e-03  5.3034547034210523e-03  5.4297694704719063e-03  5.4504471464916918e-03  3.3776563923446174e-03  5.5442240787352661e-03  5.1050240895960993e-03  5.5998007942774757e-03  3.9025540708861233e-03  4.7966219366377448e-03  4.7745120129137359e-03  3.8141188113052552e-03  4.5357513855579738e-03  4.4491329823640804e-03  4.3656742584833501e-03  4.7203659385919861e-03  5.4805501849508826e-03  5.6524472446034917e-03  3.3614156943789454e-03  4.0509286537168277e-03  3.9911119869220045e-03  3.4641634459443120e-03  5.3163463631140141e-03  3.1797859364396074e-03  4.4756812399437459e-03  3.8675839375509500e-03  4.7816580430017387e-03  5.1678948181495569e-03  4.3735577914963061e-03  3.9311690294966846e-03  4.3270458729362249e-03  5.0366303680287284e-03  4.9128653737820814e-03  3.7670500366711614e-03  3.3162212705381252e-03  5.2159066931873428e-03  3.4835109875164527e-03  3.4137152223889379e-03  4.5518169222735364e-03  4.0449826848321050e-03  5.0241157363721308e-03  3.9838915859954638e-03  5.2661648736783096e-03  3.3752811683530541e-03  4.2974872342005418e-03  4.2467306660462752e-03  3.7660294651624833e-03  3.7567017897014547e-03  3.7194235043227679e-03  3.5968927730607226e-03  3.6121047703472986e-03  3.7403683506820697e-03  4.6308660176361703e-03  3.8625061302133283e-03  4.1739829221951420e-03  4.5015010594802538e-03  4.0728843080802849e-03  4.0223766124872530e-03  3.5013251418729548e-03  4.2814394671695536e-03  3.8811161830604249e-03  3.8309202454546933e-03  3.8319444850689823e-03  3.9321126116358875e-03  4.4090262305801087e-03  4.3707012532434491e-03  4.2436842323602978e-03  4.6920922214073457e-03  3.4706766676371194e-03  3.6150338348133098e-03  3.6001709802462984e-03  3.6693905488267104e-03  3.7274244488456130e-03  3.6157599786100130e-03  3.5613957438553152e-03  4.1679117714357936e-03  4.3175331387861867e-03  3.3841162463493215e-03  3.1925824892671127e-03  3.4521168082838000e-03  4.2526097361471529e-03  4.5931366731886024e-03  4.8643912317638651e-03  4.1303877766680668e-03  3.6651559292238110e-03  5.0460525583988199e-03  4.4666697628892886e-03  3.5251809723906083e-03  5.3385871028738315e-03  3.7954242980168312e-03  3.5980361943253104e-03  3.6351624023323276e-03  3.1794933295039465e-03  3.5354764394827883e-03  3.4412146502499478e-03  4.5837338244290159e-03  4.3303746903554209e-03  4.3917123458648687e-03  4.7584505502850120e-03  3.9247780476672342e-03  3.8510920585120598e-03  4.1211233707884468e-03  3.3007355451859181e-03  4.6369769649652823e-03  4.3759583121558447e-03  4.5891035483324460e-03  4.6724202061732495e-03  3.5967645659129768e-03  3.4103837617278018e-03  3.7183329582401595e-03  3.4116217668236836e-03  3.7055967876841885e-03  3.3102716541156857e-03  3.4363456991642429e-03  3.7908676880855649e-03  4.1853128545892631e-03  3.3298816780518311e-03  3.5722377421481353e-03  3.9349471468065967e-03  3.5697554291440141e-03  3.6609863938267687e-03  3.7346995682022658e-03  3.5440269535002727e-03  4.53943073156