<?xml version="1.0"?>
<VTKFile type="UnstructuredGrid"  version="0.1"  >
<UnstructuredGrid>
<Piece  NumberOfPoints="6486" NumberOfCells="12696">
<Points>
<DataArray  type="Float64"  NumberOfComponents="3"  format="ascii">0 2.5 0  0 0 0  2.5 0 0  2.5 2.5 0  1.25 0 0  2.5 1.25 0  1.25 2.5 0  0 1.25 0  1.25 1.25 0  0 0.625 0  0.625 0 0  0.625 2.5 0  0 1.875 0  2.5 0.625 0  1.875 0 0  2.5 1.875 0  1.875 2.5 0  1.770833333333333 0.7291666666666666 0  0.7291666666666666 1.770833333333333 0  0.9375 0.625 0  1.875 1.5625 0  0.642361111111111 1.163194444444444 0  1.341594827586207 1.883979885057471 0  0.46875 0.46875 0  2.03125 2.03125 0  0.3626104797979798 1.513178661616162 0  1.381740196078431 0.4564950980392157 0  0.9375 2.172619047619047 0  2.172619047619047 0.9375 0  2.096354166666667 0.4036458333333332 0  0.4036458333333333 2.096354166666667 0  1.684027777777778 1.163194444444444 0  0.3418803418803419 0.8693910256410255 0  1.642742622813391 2.162164207604464 0  1.275619849389031 0.8465650753054845 0  0.9136284722222221 1.434461805555556 0  1.732437511238546 0.3406962303960658 0  0.9714402568595876 1.029779313093998 0  1.52281746031746 1.485615079365079 0  2.1875 1.71875 0  1.06819722569879 0.2997236128493951 0  2.136114211309524 1.303478422619048 0  0.3125 0 0  0 0.3125 0  2.5 2.1875 0  2.1875 2.5 0  0.3200021620376328 1.192323085056694 0  0.6738456129277992 0.8304377375553881 0  1.757891808928991 1.861952730357003 0  1.5625 0 0  0.9375 0 0  0.3125 2.5 0  2.1875 0 0  2.5 0.9375 0  0 0.9375 0  0 1.5625 0  0.9375 2.5 0  2.5 0.3125 0  0 2.1875 0  1.5625 2.5 0  2.5 1.5625 0  0.7448220909826522 0.3003573636608841 0  1.027298850574712 1.871151477832512 0  1.331260495098891 2.197262878816185 0  1.207917681892289 1.582765010956622 0  0.4339993447432606 1.801186844743261 0  0.6337298768939392 1.443093039772727 0  2.049851190476191 0.6826636904761904 0  0.6584821428571428 2.219122023809524 0  1.89575676467455 0.9798457973793544 0  1.437570562095628 1.059380588255917 0  1.502090052505845 0.6987070896496241 0  0.2040860661083546 1.705323965099331 0  0.2083333333333333 0.46875 0  0.5070952039991439 0.2211150679997147 0  0.6916302856529919 0.5813591430410241 0  2.265625 1.953125 0  2.2265625 2.2265625 0  1.886424081252096 2.243391360417365 0  1.40625 0.202164758520858 0  0.2269345238095238 0.2269345238095238 0  1.152730869673694 0.5225850378741401 0  1.885631899587912 1.312095130148776 0  1.614808884009367 0.9049784971014416 0  1.890095442220658 0.5126535558463003 0  2.323168682795699 0.46875 0  2.268811725689575 0.2304742875213018 0  0.6002389442105756 1.967426444210576 0  0.1768313172043011 2.03125 0  0.2311882743104251 2.269525712478698 0  2.03125 0.176831317204301 0  2.280262553344767 0.6954945504579233 0  1.979219539285994 1.809922269642997 0  2.336309523809524 1.09375 0  1.09375 2.336309523809524 0  0.9314042474388009 1.662973812215543 0  0.1634067999087722 1.40625 0  2.337090640094896 1.40625 0  1.141616997467638 2.069311773587991 0  0.46875 2.338939559681489 0  1.542440307908715 1.734944797244472 0  1.556713687786879 1.956977865354753 0  0.8264238995344066 1.975424467820646 0  1.466326331454725 1.275271369760862 0  1.655675324257095 0.5444159974393489 0  0.3385416666666666 0.6479255698005697 0  0 0.78125 0  0.5236073939200119 0.984090461540625 0  2.091665741047893 1.519793517904215 0  1.71875 2.5 0  0.5356538886262603 1.623137930505009 0  0 1.09375 0  0.1932884281517095 1.015625 0  0.8569313582417669 1.2198915584249 0  0.8876981284879677 0.8329884081524883 0  1.115618488474214 0.7219586973356271 0  1.186950366204949 1.043465130075318 0  2.057459118787237 1.110823087309335 0  1.830651283878689 2.049810069572418 0  1.689107969301489 1.367247437031697 0  0.4921048768039656 1.298643370653124 0  0.8213975694444444 2.336309523809524 0  2.03125 2.5 0  1.049729400480002 1.283723261332814 0  1.308101375801673 0.6489479469700392 0  2.5 2.34375 0  0.4968777175037714 0.7562964879736076 0  1.40625 2.5 0  1.501347663534097 2.307027627307738 0  1.602813712048603 0.1926218191360736 0  0.8393082906308107 0.463778306132633 0  1.682663349152719 1.598471865581041 0  0.7774174680851571 1.560004941327907 0  1.554204170364662 0.3898593897892066 0  1.842184459051087 0.186443880058197 0  1.358107417651776 1.696381759610015 0  1.18859291992392 1.77598670078022 0  0.1875331222687418 0.7609599743339348 0  1.339536743965101 1.422080365801479 0  0.7788179348750389 0.9955343414928611 0  0.9062978492805438 0.1919636509126373 0  1.256007360640958 0.3160320559396114 0  1.09375 0 0  1.174986727221844 0.1594990293443933 0  2.34375 1.796875 0  2.318026474511116 1.589177949022232 0  2.34375 2.5 0  1.672742954892153 2.332882724550692 0  0.2683637361947215 1.874801596909639 0  2.174770749820102 0.5581009131310781 0  1.443279522965991 0.8870068372898454 0  0.3385416666666667 0.3571428571428572 0  0.78125 0 0  2.060421048269335 2.314363248763811 0  1.088078737088509 0.8967352118723447 0  1.087825368444708 1.454931510884769 0  2.018308232129541 0.8548495425854904 0  1.943987311736842 0.3246298523011434 0  1.71875 0 0  1.85337849796276 1.144833312386208 0  2.3486328125 2.1044921875 0  1.407588788651747 2.042968789119587 0  2.336309523809524 0.865366648092144 0  2.34375 0 0  2.5 0.15625 0  0.15625 2.5 0  0 2.34375 0  0.1638044648294291 1.242263417405867 0  0.356216654757926 1.032569427322806 0  0.3188217956111817 1.355736727000647 0  0.5924956460852111 0.36112522004736 0  0.6594216488965849 0.1603472116132387 0  1.841804599497131 1.72214349266521 0  0.15625 0 0  0 0.15625 0  2.115898634821499 1.894570904464496 0  0.7821877980253907 0.7129993435924866 0  1.003820447087786 0.4516053462784233 0  0.477562948779147 1.138333049293613 0  0.719493678605015 1.305655360135975 0  0.9772457618587566 2.020350128938537 0  0.8764738248887107 1.826219722709673 0  1.254787875123819 2.339010653832026 0  2.343597354852534 1.249982759769001 0  0.78125 2.5 0  0.46875 2.5 0  2.5 1.40625 0  1.09375 2.5 0  2.5 0.78125 0  2.5 1.09375 0  2.03125 0 0  2.5 0.46875 0  1.40625 0 0  0.46875 0 0  0 0.46875 0  0 1.40625 0  0 1.71875 0  0 2.03125 0  2.5 1.71875 0  2.5 2.03125 0  2.005424054645407 1.653223486966518 0  0.1538730573856537 1.559850281736677 0  2.33984375 2.33984375 0  1.166539506212474 1.922878979538754 0  0.3914885633949916 1.65887232812171 0  0.5795503163042564 1.766243562569382 0  0.399533125920212 1.946786875081388 0  0.7866324979014098 2.127719094551316 0  0.3654683023546834 0.1495701132219454 0  0.1527388747131078 0.6116379440619215 0  2.013737577140188 1.391056634712135 0  1.17635437372994 2.213329084238133 0  1.737118141866284 1.010577140843115 0  2.200707118087222 1.164723314085963 0  1.697018908736685 1.993548551451517 0  0.5387621649009668 0.6070503962352419 0  2.032805785855952 0.5330427622570983 0  1.082699501358059 1.667818725183932 0  1.503819781540653 0.5468420196858188 0  2.015409142866072 2.175941657590429 0  1.752057611265444 0.869642097111018 0  0.612251684107783 2.356045720700959 0  1.902817102342857 0.6607642211999982 0  2.159616561739693 0.7867739969338844 0  0.5120038350106624 2.197302352398502 0  1.888200216011548 1.919501662489862 0  1.495909909726654 2.16028358757309 0  0.489139876703609 1.443203008943564 0  0.8819175670410521 0.3301172743913011 0  1.882591144370812 0.8155965192707721 0  1.133979796994841 1.172526771862882 0  2.206217447916667 2.084147135416667 0  2.20361328125 2.36279296875 0  1.395746985657004 1.556054166359645 0  1.704383111516207 1.734750450338683 0  0.9575737847222222 2.36274223823052 0  1.035150984253136 0.1302833343179028 0  1.383966125325753 0.7651479963479179 0  1.64003252158672 0.6824316405528895 0  2.22550785055421 1.487078576356817 0  1.760964431499756 1.48495222505201 0  1.276460980673788 2.004207003584658 0  0.1341477688427096 1.828777507920502 0  1.542261434180652 1.155296658359034 0  1.334627911613854 0.9696897472490321 0  1.30794231473696 1.119420615785191 0  0.7028260459857245 0.4438906910721139 0  1.625757433094055 1.84268057552138 0  0.9818707849053143 1.165603626132254 0  2.0086489901463 1.243134585689553 0  1.934584460420609 2.374094051915812 0  1.798434376789567 2.38671361912528 0  1.206314791201715 1.382064292497919 0  0.6333752893366955 0.7023738550008095 0  0.7796219811205605 1.42573253164258 0  1.564399711917382 1.026040828857629 0  0.3385416666666666 0.4889012896825397 0  0.1041666666666667 0.390625 0  0.989112246382566 1.543537365516289 0  2.025724425454636 0.9846960595520872 0  0.6602885475034063 2.086117390485779 0  1.607130551925032 1.267198646640915 0  0.1317864544877056 0.8896173683400176 0  1.755387840017567 2.230364320056445 0  1.301540702984401 0.1216289692748247 0  1.433170657577442 0.3331052752740999 0  1.500459610550388 0.113513924782439 0  0.6494291520606965 1.029586599619295 0  1.010146149868299 0.794897284196169 0  0.3700844198238017 2.235390157870766 0  0.3360891767780704 2.36656279435396 0  1.876856241037701 1.437150669863757 0  1.778674102957329 1.245979347269706 0  0.5472829890977179 0.1005517127039925 0  0.4669074189005698 0.3416784232954367 0  1.472765289289269 1.850899166481903 0  1.555853593327178 1.608452097912802 0  0.6708955559113426 1.646561631116984 0  0.8164699620322933 0.5924479455478063 0  0.3167738989468366 1.758696809749795 0  0.2788007305565096 1.605499483471246 0  0.7821720982350511 0.181524936294752 0  1.376812251214195 2.313340247908297 0  1.785652202614777 0.5962261755537186 0  1.761467296310972 0.4679567244718574 0  2.2265625 1.8359375 0  2.3828125 1.9140625 0  0.5279531607054191 2.071552361614785 0  2.397573269551114 0.234375 0  2.383578172599618 0.3589298466020009 0  0.1024267304488855 2.265625 0  0.1164218274003825 2.141070153397999 0  0.2696857594953064 2.135405441512016 0  2.164961300137334 0.1375322943529536 0  2.137757548369486 0.2724194778647587 0  2.238873711826398 0.3626419179496562 0  0.1001414910226386 0.234375 0  0.2176339285714286 0.3478422619047619 0  0.2503620791333544 0.1061694061057066 0  2.336445461915368 0.1250451055247424 0  0.2154004640409726 2.3918124
[...]
<PointData  Scalars="f_16-3"> 
<DataArray  type="Float64"  Name="f_16-3"  format="ascii">2.2455482632993017e-04  -1.7293509663146587e-09  -3.5496084247325721e-10  2.6285953644693375e-04  -1.0646431231713809e-09  3.7727699917686278e-07  2.4318741572661143e-04  2.2645897356433824e-04  2.9207773494987956e-04  2.1381515491616812e-04  -1.5230164619524347e-09  2.2484317557586232e-04  2.2644995243911706e-04  -2.8035239486171245e-10  -6.8488939074613818e-10  3.8408096415264067e-05  3.8167185042460469e-04  1.0344507726354011e-07  2.4881353910025480e-04  2.2263942128092747e-05  1.0435383646460576e-04  4.9902873449745981e-04  4.2957991068452727e-04  1.3352891760516535e-04  2.8063353673433278e-04  2.2874402051376700e-04  2.2833584178376722e-08  2.3731654067294676e-04  8.3267464440322907e-08  -5.2900732873806144e-10  2.2638677781995243e-04  2.5002957888051687e-05  4.8681717493496231e-04  4.1169352410685251e-04  2.0874064531918136e-05  4.7792460919166186e-04  -6.8332830157204097e-10  3.4769303747349582e-04  2.6382601583866739e-04  5.8996627413625898e-05  1.3160149357843069e-08  5.5551528009522875e-06  -1.7388044521301816e-09  -2.1336249784105367e-05  1.3751662497187188e-04  3.7416207321419988e-04  2.4841432112354607e-04  5.1410949670585365e-04  3.4307023730570835e-04  -8.6282253217757729e-10  -1.2764623206132224e-09  2.2447298053357651e-04  -5.0458698420380808e-10  6.7523393263800268e-09  2.2630840494623883e-04  2.2646511221100228e-04  2.2641450917157172e-04  -3.3239142209221883e-10  2.2620648495739787e-04  3.0164180550787688e-04  5.7803786476245232e-06  2.1549648852485466e-07  3.0930799487559373e-04  3.1033273284822419e-04  4.8123664518695823e-04  2.2703991556787074e-04  3.0107744622592933e-04  4.0997838980123843e-09  2.2664700238592559e-04  1.1693685729587474e-06  4.4963134627191227e-05  6.8142285952320692e-07  2.2648339148096283e-04  1.2474045034517613e-03  1.9799956775962673e-07  8.4520940318856102e-05  1.1813586154197115e-04  2.7431453211661233e-04  4.0365816056625137e-04  -9.1383078848938595e-10  9.1046750391468766e-07  6.4293026407231915e-07  2.3960911733719861e-05  3.8817825870999172e-06  9.2713619322028363e-11  -3.9862968708501755e-10  -4.4751031417022162e-10  2.2794100076967109e-04  2.2640112578843212e-04  2.2598668865342952e-04  -5.8717581945252940e-10  3.9161196269447441e-10  1.8377441910838422e-04  1.8756681236062275e-07  2.4004421532918530e-04  3.5553853855860599e-04  2.2659633809686241e-04  3.9638878241398284e-06  2.8821343650579863e-04  2.2575507393106573e-04  4.0107453784817595e-04  4.3492258651492416e-04  2.4071045990330068e-04  1.4229297758013463e-04  1.0205756236072037e-08  8.8738405424277494e-04  2.2538840162930268e-04  5.7331921239184888e-04  3.0567554198192756e-05  3.4601517606602875e-04  2.3624639459516878e-04  2.2642168614237768e-04  2.3842123029204482e-04  5.5135248958086257e-04  1.9843118443271663e-04  1.6943203481963779e-05  1.5924997303173272e-04  1.6128190279472733e-06  3.8285750391543326e-04  8.6802764394818330e-05  2.8736067781544858e-04  2.2713875904615440e-04  3.9428595518316230e-04  4.8131989097130007e-04  1.3900698376506928e-06  2.0622936311455507e-04  7.2211924780740439e-04  2.6542035947197822e-04  3.3015825810217114e-04  -8.3120145560435341e-10  4.3312964261933318e-06  2.2825595198331205e-04  3.1949788844025303e-04  3.7398933708017928e-10  -6.8805090550202524e-10  4.5941671174791547e-04  4.2134562198022855e-04  3.6601360453455598e-04  3.5157543822765416e-04  5.4066239093837815e-04  1.0418143918591712e-09  2.2040760541183070e-09  -1.1671741168779424e-09  -1.0012780331261285e-09  4.4998956242857316e-05  1.6123465055739647e-05  3.2048770239205456e-04  3.7488540139616960e-04  2.2646957077919439e-04  -3.5912318287323801e-10  9.9994246197077070e-06  5.7025544076958437e-05  -1.3781670222996651e-09  3.7639586217873402e-04  1.0348275952528939e-04  4.9974938558246739e-04  8.7728330744506434e-08  -6.2325974471943355e-10  -7.7491917174899335e-10  7.7739209604551955e-06  1.5394087339719791e-04  3.9172760837761231e-04  6.4643732214506022e-09  -4.2816235870370992e-10  -3.4756308191019568e-10  2.2453646964398584e-04  2.2553409727089506e-04  2.2718887714093320e-04  3.2782718210235917e-04  2.3118429498652853e-04  5.6445953356791458e-06  3.3500559573014495e-09  2.1015722656306167e-04  -1.6742537249779859e-09  -5.5089556083676502e-08  1.5848095535049409e-04  1.5391642699202828e-04  7.9876654372024011e-07  3.6795664513867557e-04  4.4407039159502688e-04  2.5808330570322769e-04  2.7269815581225788e-04  2.6145904244351091e-04  9.0417749750127903e-07  2.2519203628679403e-04  2.2455261009274197e-04  1.5704423377556127e-06  2.3125493349545812e-04  2.6143206878059724e-10  5.5779237989305464e-08  -5.9737737293013018e-10  -3.1891102401374605e-10  -9.5326423419205839e-10  -1.6597211996180160e-09  1.4850956799048181e-04  2.2646404976723328e-04  2.2646345714720731e-04  2.2640350793764447e-04  1.6188881857846273e-05  7.9893920576832838e-05  8.9635962090878215e-05  2.2649071191198518e-04  2.7073640363358960e-04  3.4689563547678519e-04  2.2752979210011537e-04  2.3168842923987582e-04  2.2653262948601870e-04  2.3022142875769763e-04  1.8176416944045514e-08  5.7199851388727897e-04  2.0766084615199458e-05  2.6632794973647177e-04  4.8341647543172148e-06  9.5100496042945711e-07  4.1372411426277196e-04  3.4333812938175883e-04  -3.1607721881277691e-10  4.2896275313724432e-04  4.4733848278909904e-08  3.5248325657730140e-04  8.3456213472244318e-07  2.2578765184125905e-04  9.4523467375989857e-09  8.7473531038876419e-09  2.2630831497826191e-04  3.0000138510078469e-04  3.7762904025598966e-04  2.4780595597404524e-04  1.7491858750851114e-07  1.3607717497981913e-07  3.2930888261721136e-04  2.1468690686727942e-04  3.3824828928292751e-04  3.9622653515499021e-04  3.0645701664377490e-04  2.2967478606778665e-04  -1.0848850916367036e-09  3.9301911236123067e-06  1.4753270410240055e-07  1.3096867771416041e-05  1.1694965104155467e-04  3.5848216281993324e-04  2.2645927764135086e-04  4.9515519858252667e-05  4.0270204123473453e-05  1.3269408704631827e-04  1.1705987095499901e-05  4.0111121692349604e-04  4.6938128243687250e-04  7.6484377907361771e-06  4.0031834450082103e-04  3.8773120333218241e-04  4.3059438825217620e-04  3.6812329767121394e-04  3.9830003058526910e-04  1.6522683404596770e-05  5.4376715341921365e-04  1.4162994415574770e-03  4.4900971209816716e-04  4.7299726150069746e-07  2.2762085893159845e-04  7.3378097890030772e-05  2.3832085833942808e-04  4.0984938257403197e-04  -1.0207667336352835e-09  1.2246426563007033e-10  -8.9891520427373043e-10  6.0888628173818204e-04  7.5162100172126693e-05  2.2613447334493149e-04  2.2551104921039996e-04  5.3318406884394965e-05  2.7043213626174867e-05  -7.6962972587103770e-10  1.0825817113199728e-05  4.4602311438491244e-04  3.2077330067546180e-04  2.5552458266410645e-04  3.9698559662730119e-05  2.2657426364511291e-04  2.2668425455588942e-04  3.4752680643533901e-09  2.9324398215315470e-04  8.2596859603932142e-09  1.2694244942820624e-10  8.7059996663345923e-05  6.6148272657176274e-05  2.2664027784487226e-04  -3.7564787277115412e-10  -3.7919105891384747e-10  2.2598665552218698e-04  2.2630593112440219e-04  2.2631497099478149e-04  -5.1120216999462839e-10  -5.2356552581102050e-10  -4.6438310631651547e-10  -3.1017252161435180e-07  1.9909756821814283e-04  -2.4095609048841371e-09  -4.1672580595092900e-10  2.2527376119044226e-04  2.4570415375033258e-04  -6.1816964263730089e-09  -7.6326936624819223e-10  6.2824514488709037e-06  5.0808829616106411e-08  2.4582017564997805e-07  2.2643240917002963e-04  1.7410833742016651e-04  5.7781935027239099e-04  2.2643813361441053e-04  -6.4626539763131410e-10  -3.2702093411399522e-10  5.9860794940202641e-10  1.9680118139617635e-04  5.5130984043041092e-05  2.3510115194668948e-04  2.2727705192451884e-04  2.2599405075008364e-06  3.2423006960158684e-05  1.6294365326963248e-04  -6.1136252432072241e-10  6.5862286372375450e-04  2.8850402650285929e-04  3.2961553073806662e-04  9.2551945598123243e-10  -1.2605062193755596e-09  2.3730734909466408e-07  3.0470303220661788e-04  2.3244579213494419e-04  2.7774902589339707e-08  2.4600453829172323e-04  3.7614605655794821e-04  1.0118412515931906e-04  2.3677605054705405e-04  -5.4126706538817558e-10  2.4119261497729372e-04  2.2722113925629410e-04  2.2649084772002857e-04  4.6307400753517721e-06  3.3094981793336676e-06  5.0843656432678248e-04  -8.1711219400550013e-10  6.7807480806029605e-07  3.7895245593345391e-04  -7.2464517641290719e-10  1.3425003762962611e-05  4.2493626505574027e-04  1.0650446324809076e-04  2.2575499135683730e-04  5.3037919410959481e-04  6.3409167116106437e-04  5.5905263005842653e-04  1.0279097492525049e-03  4.1227088717822818e-10  2.2646551023045518e-04  2.2655510396573414e-04  1.1666090763755544e-06  2.3439915209804314e-07  2.6158744594008827e-04  2.2520728634968027e-04  2.6646695133958559e-04  5.9895884623891143e-05  1.2619607835196291e-05  1.7512628901120404e-07  3.8235037234828095e-04  -7.7385283049218432e-10  4.1667594639267075e-04  2.3923719644924386e-04  2.6307001481770144e-04  2.5466672723836698e-04  2.2646967849642891e-04  1.9951175193846113e-06  2.9516443041712430e-04  4.1003915770867214e-04  3.2295414646595381e-04  7.0712934483191197e-05  2.9496737175508351e-04  6.4759895731000675e-04  8.7823183001931808e-05  3.1453914557756678e-04  2.0836053076840586e-04  2.8682618602288607e-08  4.9438446670918524e-04  3.7493163568850992e-04  4.7676603700713493e-04  2.9439545115270968e-04  2.5350717640075721e-04  4.4564779920075214e-08  3.9417232674458655e-04  3.9508498204332576e-08  2.4416940046255394e-07  2.2952589912830190e-04  2.9727839691050842e-04  3.6880475738264431e-04  1.8303775982572679e-04  2.6170458957176307e-04  -7.5129511983890798e-10  3.3118769409291823e-05  5.1472805888312255e-04  7.3831733257387257e-04  2.2770553597897654e-04  1.9781326966857928e-06  4.0481089237598251e-07  4.3998838901713116e-04  2.9742276294233911e-06  3.3303915845140541e-04  2.5904347627978024e-04  6.8240962017423177e-04  -3.8384418072596674e-10  2.9126357912007479e-06  9.2219520716087933e-06  3.3332764561297098e-05  -4.6983010385584127e-10  2.2931325515189875e-04  2.3391093365029308e-04  5.2211985067631637e-05  6.9375078803564567e-04  4.9919129292749591e-04  2.2464792320880098e-04  3.9476769308258088e-04  4.2901471474853545e-04  2.4895507092036927e-04  3.7672942702169992e-04  2.9761143270254728e-04  2.7545518363471428e-04  2.3047595116298649e-04  2.1551968573113098e-04  3.6787773369298561e-04  3.2737040476836201e-04  -1.4365961528648294e-09  4.7894750248453843e-04  2.2660936433502134e-04  2.2661139870052788e-04  -5.7853056068351152e-10  -7.9395163103978801e-10  2.3111553348809571e-04  -9.6255647747668044e-10  4.1188811521203513e-04  -1.1715896649426432e-09  -3.1488637885002486e-10  2.2646441642737165e-04  2.0642189777109396e-04  -6.9721035487924677e-10  3.2692006540950151e-04  5.5691878354523878e-04  3.2267068828736504e-04  8.9900644461747968e-07  1.8762923638419627e-08  -4.6667403164213939e-10  4.5811381863932816e-04  2.2773458124740597e-04  3.3160847973214783e-04  1.0848223508389604e-04  1.4608787291826695e-08  2.2807140689463492e-04  2.9031548572776530e-05  7.8160905498351704e-04  4.7798752467771260e-04  2.3662048676021522e-04  4.4605803184751263e-04  6.7426458723214854e-08  2.3044493581802296e-04  -5.4701463723679339e-10  -5.6712780292222190e-10  2.4423509948760786e-04  2.3170808708290755e-04  4.8986780396129744e-04  6.9870410206020025e-09  7.0600957436190738e-04  -6.3371359265776640e-10  1.6800314530146518e-06  1.0134795444447003e-05  1.1421774332441025e-09  4.3860882703193563e-09  -4.8221400219761754e-10  4.4963752773478905e-04  4.0571748543456027e-04  4.6433725251336996e-04  4.0093181592043375e-09  2.2450214615337265e-04  3.9314585069691392e-04  3.3332531530971121e-04  2.2606627985476168e-04  3.9218619395819362e-04  3.2179410654037144e-04  2.1556759294929806e-05  -6.3677970204817144e-12  5.1746745975888154e-04  2.2663080447933714e-04  3.0198346944989641e-04  4.8849842354583596e-09  6.1836986268974187e-05  9.7925238499047238e-06  1.9036621561815119e-09  8.4475002583264379e-06  1.0473000094985031e-05  4.0767322367675686e-04  2.2644806379598878e-04  2.5643748953326558e-04  1.4962922300092553e-09  2.3088054729793302e-05  2.1256954785484251e-04  -1.6994228071399689e-09  -3.0781238700838736e-10  -3.4900131442848313e-10  2.3157070996212827e-04  -1.1666267106416777e-09  2.2657080351466848e-04  2.2647487570584611e-04  1.5175051720529540e-06  3.9426076102732434e-04  1.2346537640014553e-07  3.4372278037964022e-04  4.3365781029211361e-06  4.3122055559219693e-04  3.8879071109266280e-06  2.2645924080543354e-04  2.2672637785993487e-04  2.2513165309914375e-04  2.2528427007775532e-04  -1.1515778438308231e-09  3.5908742238050005e-08  1.8550161698081106e-04  2.4579732336017359e-09  2.2767609700145131e-04  2.4710127571168374e-04  9.8090919116671949e-06  3.4944912485611892e-06  1.3391785185887787e-04  2.2640681687161447e-04  1.0521554194463885e-04  1.4263731467332362e-10  -1.0822099139460411e-09  -1.6170542576411323e-10  1.2466945151697212e-07  1.7595858268526215e-08  3.4712275535449725e-07  3.9613511518820988e-05  7.7010729971065022e-05  2.3858654302917932e-05  -3.5288521782886401e-10  2.6395445913114418e-04  -4.6795669480415751e-10  2.5882450883071861e-04  3.0789150889961231e-04  7.2347707494645275e-06  3.9255436737871180e-04  3.6327256291515848e-04  4.4044776049902272e-05  1.4345354239068102e-04  2.1427341400601419e-04  1.7612803727119581e-05  2.3715198963473507e-05  -4.1998077570286381e-10  2.2622974607333825e-04  3.0213847555318491e-04  6.6262111089371647e-07  1.4486288572628655e-04  2.3531069145280470e-04  -4.6319084657968255e-10  1.8156123091472677e-05  4.0759916446282121e-04  7.7833830184520234e-05  3.5315229012316385e-04  -3.7558241081517863e-10  1.6064126774910199e-04  2.2615952285535686e-04  -2.1398624385828688e-10  2.2571022610188784e-04  -8.7958638120571765e-10  2.9001440382989650e-08  3.6612103338649351e-04  2.1486230839465645e-04  3.4373965321616825e-04  4.0507504018937149e-04  1.0518451825766361e-04  3.8424016563950813e-04  2.4786938678925200e-04  4.6531001894761624e-04  1.4077297558550704e-06  5.5275618536933747e-09  2.6598875307334570e-04  3.9957884559500964e-04  1.0060697285419712e-08  5.8867995185883432e-07  5.5410609770743087e-05  3.3558349998503301e-04  2.8355144788615015e-04  3.5307446630648842e-04  3.6644699971514311e-04  2.4191714966996386e-04  9.5809125636218460e-05  3.6553488600602040e-07  6.6352994265087450e-06  5.0535371752265341e-07  4.7924508396487340e-07  2.2743190776258526e-04  2.0270912366400897e-06  -1.2843269883609047e-09  7.0890797720057442e-08  3.4882111131456735e-05  1.4930711178663928e-06  8.5407193971702198e-08  1.8903028570911538e-08  4.2771885499763427e-04  4.9262081047922717e-04  6.6110459233176120e-05  2.3011082629630008e-04  5.7987340163339173e-05  2.8879408589431384e-04  5.1922678273507817e-07  -1.2265426117203231e-09  1.3008036608353629e-04  -4.1899623486889738e-10  1.6278491346286553e-04  4.0227052506523617e-04  3.4659089743443197e-04  5.4420914562082903e-05  1.5168779198384752e-04  2.5082591614683065e-06  2.8280413335484133e-04  2.4929283492777603e-04  -1.7107408534064500e-09  -2.1202325783006759e-09  2.1783566403762512e-04  -1.0064933571044303e-09  2.5083453953451002e-04  -2.7440777949970346e-08  2.2631937765797144e-04  -3.4579536556756090e-10  1.6779091051165825e-04  3.1807798447001890e-04  2.7272614330481283e-06  5.5884546760675481e-05  3.4278472626809298e-04  7.7600369021842751e-08  3.9174691770775479e-04  -1.6878853042489313e-09  -4.8627092407037948e-10  -5.6767012022452978e-10  3.2510508693984995e-10  8.3092109788491791e-07  8.4951898724088036e-04  2.2657238730048332e-04  2.3292771097678725e-04  2.3418287244447421e-04  2.8907846089215827e-04  3.3331886784474977e-04  -7.6839343564996758e-10  2.5835460763001675e-04  5.0881863948618608e-04  4.5293265847465937e-04  4.0639130800214974e-05  1.9270439388386256e-06  5.5811839823407251e-07  2.2633200831843021e-04  2.2653335361075397e-04  2.7598961149488362e-04  7.6304313479963481e-06  -1.1128635315718899e-09  3.5121621829060012e-04  2.2560694532516135e-04  3.8822485594593306e-04  2.2504919826957259e-04  2.2458472534188256e-04  2.5299865298065516e-04  2.2646476232695208e-04  2.2498645337698278e-04  1.0072740396682489e-05  -7.2383728091682418e-10  -8.2008115931169383e-10  1.4960711827290097e-07  7.4799885804483257e-07  3.1982148847116304e-06  2.2636943554691014e-04  2.2644830531948193e-04  2.2646303559020452e-04  2.3646712908096114e-04  2.2275279062538214e-04  -1.3263400628558000e-09  -6.4218395705522938e-10  2.2643724604585016e-04  2.2448549372687440e-04  -1.7276210199188218e-09  2.2592034085981618e-04  -3.3898908723081651e-10  -1.6059028792600059e-09  -9.1232593340760016e-10  -7.7298934089011286e-07  1.0305238796814827e-06  3.6738078901084217e-04  1.7102593166090619e-04  2.4091262698197762e-04  2.8796757397122030e-04  2.2646493990630758e-04  2.8234841836673197e-04  1.9945612506319503e-04  2.4801234422920822e-05  1.0553034780900329e-04  -3.2556856043092376e-10  3.8840968111077823e-08  2.8667454893447969e-04  4.1597516072769094e-04  2.2587799903137949e-04  2.2940791837944575e-07  2.4994174124752169e-04  1.2706157431034045e-04  5.6567730120525648e-04  2.6481832941416923e-04  5.5971467131029879e-05  -1.5809972813087549e-09  4.4230218799864453e-04  2.9394768522633002e-04  2.2643891449452213e-04  5.1738368780353814e-04  1.7286505626579118e-06  2.4500754139289904e-04  2.2652275842676328e-04  2.2646722701063511e-04  2.2650341051326075e-04  2.2675435471268643e-04  4.1447744407049360e-04  1.0553165338036202e-03  4.0239384833740194e-07  4.3309784418686019e-04  2.7855807572189190e-04  2.4918491997210472e-06  5.4364545295882511e-04  2.6273250782234688e-06  2.2663740051660363e-04  2.7318303870435122e-04  3.9906249030789817e-04  3.9526366975970237e-04  3.4876024185061033e-04  2.4815348893828865e-04  2.9275738375011518e-08  5.9607193247252432e-04  5.2548245268127427e-04  -5.8775105032359831e-10  1.0255858276347560e-07  6.6120285907892058e-04  3.0350877780658766e-08  2.2122011258283203e-09  4.1299468005151870e-04  1.1776266799519323e-05  5.0429322081067133e-05  4.8748982383835292e-05  4.1962403811705112e-05  2.8196348561254681e-05  2.3753993568633973e-04  2.4245444632226695e-04  4.0684274930763393e-04  2.8616005900737156e-05  1.5423849999252297e-05  2.2816661130391908e-05  1.0217378884658691e-05  2.2745994038617562e-04  2.2647276262051320e-04  3.1942042447621275e-04  2.2851032273384035e-04  8.1730948061953526e-06  2.2670377743854085e-04  2.2648120021307984e-04  3.0068976140822920e-04  2.2313279337735080e-05  2.1437239901592783e-08  3.1536508579695697e-09  2.2638912333665522e-04  3.1142919228185239e-04  2.2747368009680869e-04  2.3041682668521339e-04  2.2737858616063287e-04  1.4297741159049636e-04  -4.9741460583579671e-10  2.4956540265765823e-04  2.6333038827598140e-04  2.2636421169221587e-04  2.2628734210953787e-04  2.2610943692129214e-04  3.6153455334639155e-04  1.8842560338520816e-04  -7.8602737448670580e-10  1.8869558237876255e-05  2.2041933846398055e-09  6.3182223101125450e-06  3.8000796475404447e-04  3.4545560699060073e-04  2.3021637402319400e-04  1.0606747089350267e-04  -6.0586735846722215e-10  1.7625540513044953e-04  -9.5567927550346630e-10  3.9108250536952575e-04  7.2981206071474826e-04  -6.5716529018949666e-10  3.0990718088794877e-04  3.8394603230081228e-04  7.7480780282741113e-05  4.7369388525559277e-09  2.2498048570661087e-04  2.3633797323422602e-04  4.4068208911072593e-04  1.6864692184908394e-04  2.5751115911805503e-04  4.2759818039765440e-04  4.0000074285624062e-04  2.3653267056210204e-04  -4.1109081596492395e-10  1.4664622896124635e-07  4.7024612922956521e-04  2.6951730676902846e-04  2.6349599343641244e-04  2.2618513887592896e-04  2.2525865003302553e-04  7.6867155055195999e-11  2.2491613847849069e-04  7.9701586758842429e-09  -4.4419102264387773e-10  3.6468945840959719e-04  2.2642418938675517e-04  -8.6422127797575416e-10  2.9836516658474094e-04  -5.5326719939771835e-10  4.268826488926