<?xml version="1.0"?>
<VTKFile type="UnstructuredGrid"  version="0.1"  >
<UnstructuredGrid>
<Piece  NumberOfPoints="6486" NumberOfCells="12696">
<Points>
<DataArray  type="Float64"  NumberOfComponents="3"  format="ascii">0 2.5 0  0 0 0  2.5 0 0  2.5 2.5 0  1.25 0 0  2.5 1.25 0  1.25 2.5 0  0 1.25 0  1.25 1.25 0  0 0.625 0  0.625 0 0  0.625 2.5 0  0 1.875 0  2.5 0.625 0  1.875 0 0  2.5 1.875 0  1.875 2.5 0  1.770833333333333 0.7291666666666666 0  0.7291666666666666 1.770833333333333 0  0.9375 0.625 0  1.875 1.5625 0  0.642361111111111 1.163194444444444 0  1.341594827586207 1.883979885057471 0  0.46875 0.46875 0  2.03125 2.03125 0  0.3626104797979798 1.513178661616162 0  1.381740196078431 0.4564950980392157 0  0.9375 2.172619047619047 0  2.172619047619047 0.9375 0  2.096354166666667 0.4036458333333332 0  0.4036458333333333 2.096354166666667 0  1.684027777777778 1.163194444444444 0  0.3418803418803419 0.8693910256410255 0  1.642742622813391 2.162164207604464 0  1.275619849389031 0.8465650753054845 0  0.9136284722222221 1.434461805555556 0  1.732437511238546 0.3406962303960658 0  0.9714402568595876 1.029779313093998 0  1.52281746031746 1.485615079365079 0  2.1875 1.71875 0  1.06819722569879 0.2997236128493951 0  2.136114211309524 1.303478422619048 0  0.3125 0 0  0 0.3125 0  2.5 2.1875 0  2.1875 2.5 0  0.3200021620376328 1.192323085056694 0  0.6738456129277992 0.8304377375553881 0  1.757891808928991 1.861952730357003 0  1.5625 0 0  0.9375 0 0  0.3125 2.5 0  2.1875 0 0  2.5 0.9375 0  0 0.9375 0  0 1.5625 0  0.9375 2.5 0  2.5 0.3125 0  0 2.1875 0  1.5625 2.5 0  2.5 1.5625 0  0.7448220909826522 0.3003573636608841 0  1.027298850574712 1.871151477832512 0  1.331260495098891 2.197262878816185 0  1.207917681892289 1.582765010956622 0  0.4339993447432606 1.801186844743261 0  0.6337298768939392 1.443093039772727 0  2.049851190476191 0.6826636904761904 0  0.6584821428571428 2.219122023809524 0  1.89575676467455 0.9798457973793544 0  1.437570562095628 1.059380588255917 0  1.502090052505845 0.6987070896496241 0  0.2040860661083546 1.705323965099331 0  0.2083333333333333 0.46875 0  0.5070952039991439 0.2211150679997147 0  0.6916302856529919 0.5813591430410241 0  2.265625 1.953125 0  2.2265625 2.2265625 0  1.886424081252096 2.243391360417365 0  1.40625 0.202164758520858 0  0.2269345238095238 0.2269345238095238 0  1.152730869673694 0.5225850378741401 0  1.885631899587912 1.312095130148776 0  1.614808884009367 0.9049784971014416 0  1.890095442220658 0.5126535558463003 0  2.323168682795699 0.46875 0  2.268811725689575 0.2304742875213018 0  0.6002389442105756 1.967426444210576 0  0.1768313172043011 2.03125 0  0.2311882743104251 2.269525712478698 0  2.03125 0.176831317204301 0  2.280262553344767 0.6954945504579233 0  1.979219539285994 1.809922269642997 0  2.336309523809524 1.09375 0  1.09375 2.336309523809524 0  0.9314042474388009 1.662973812215543 0  0.1634067999087722 1.40625 0  2.337090640094896 1.40625 0  1.141616997467638 2.069311773587991 0  0.46875 2.338939559681489 0  1.542440307908715 1.734944797244472 0  1.556713687786879 1.956977865354753 0  0.8264238995344066 1.975424467820646 0  1.466326331454725 1.275271369760862 0  1.655675324257095 0.5444159974393489 0  0.3385416666666666 0.6479255698005697 0  0 0.78125 0  0.5236073939200119 0.984090461540625 0  2.091665741047893 1.519793517904215 0  1.71875 2.5 0  0.5356538886262603 1.623137930505009 0  0 1.09375 0  0.1932884281517095 1.015625 0  0.8569313582417669 1.2198915584249 0  0.8876981284879677 0.8329884081524883 0  1.115618488474214 0.7219586973356271 0  1.186950366204949 1.043465130075318 0  2.057459118787237 1.110823087309335 0  1.830651283878689 2.049810069572418 0  1.689107969301489 1.367247437031697 0  0.4921048768039656 1.298643370653124 0  0.8213975694444444 2.336309523809524 0  2.03125 2.5 0  1.049729400480002 1.283723261332814 0  1.308101375801673 0.6489479469700392 0  2.5 2.34375 0  0.4968777175037714 0.7562964879736076 0  1.40625 2.5 0  1.501347663534097 2.307027627307738 0  1.602813712048603 0.1926218191360736 0  0.8393082906308107 0.463778306132633 0  1.682663349152719 1.598471865581041 0  0.7774174680851571 1.560004941327907 0  1.554204170364662 0.3898593897892066 0  1.842184459051087 0.186443880058197 0  1.358107417651776 1.696381759610015 0  1.18859291992392 1.77598670078022 0  0.1875331222687418 0.7609599743339348 0  1.339536743965101 1.422080365801479 0  0.7788179348750389 0.9955343414928611 0  0.9062978492805438 0.1919636509126373 0  1.256007360640958 0.3160320559396114 0  1.09375 0 0  1.174986727221844 0.1594990293443933 0  2.34375 1.796875 0  2.318026474511116 1.589177949022232 0  2.34375 2.5 0  1.672742954892153 2.332882724550692 0  0.2683637361947215 1.874801596909639 0  2.174770749820102 0.5581009131310781 0  1.443279522965991 0.8870068372898454 0  0.3385416666666667 0.3571428571428572 0  0.78125 0 0  2.060421048269335 2.314363248763811 0  1.088078737088509 0.8967352118723447 0  1.087825368444708 1.454931510884769 0  2.018308232129541 0.8548495425854904 0  1.943987311736842 0.3246298523011434 0  1.71875 0 0  1.85337849796276 1.144833312386208 0  2.3486328125 2.1044921875 0  1.407588788651747 2.042968789119587 0  2.336309523809524 0.865366648092144 0  2.34375 0 0  2.5 0.15625 0  0.15625 2.5 0  0 2.34375 0  0.1638044648294291 1.242263417405867 0  0.356216654757926 1.032569427322806 0  0.3188217956111817 1.355736727000647 0  0.5924956460852111 0.36112522004736 0  0.6594216488965849 0.1603472116132387 0  1.841804599497131 1.72214349266521 0  0.15625 0 0  0 0.15625 0  2.115898634821499 1.894570904464496 0  0.7821877980253907 0.7129993435924866 0  1.003820447087786 0.4516053462784233 0  0.477562948779147 1.138333049293613 0  0.719493678605015 1.305655360135975 0  0.9772457618587566 2.020350128938537 0  0.8764738248887107 1.826219722709673 0  1.254787875123819 2.339010653832026 0  2.343597354852534 1.249982759769001 0  0.78125 2.5 0  0.46875 2.5 0  2.5 1.40625 0  1.09375 2.5 0  2.5 0.78125 0  2.5 1.09375 0  2.03125 0 0  2.5 0.46875 0  1.40625 0 0  0.46875 0 0  0 0.46875 0  0 1.40625 0  0 1.71875 0  0 2.03125 0  2.5 1.71875 0  2.5 2.03125 0  2.005424054645407 1.653223486966518 0  0.1538730573856537 1.559850281736677 0  2.33984375 2.33984375 0  1.166539506212474 1.922878979538754 0  0.3914885633949916 1.65887232812171 0  0.5795503163042564 1.766243562569382 0  0.399533125920212 1.946786875081388 0  0.7866324979014098 2.127719094551316 0  0.3654683023546834 0.1495701132219454 0  0.1527388747131078 0.6116379440619215 0  2.013737577140188 1.391056634712135 0  1.17635437372994 2.213329084238133 0  1.737118141866284 1.010577140843115 0  2.200707118087222 1.164723314085963 0  1.697018908736685 1.993548551451517 0  0.5387621649009668 0.6070503962352419 0  2.032805785855952 0.5330427622570983 0  1.082699501358059 1.667818725183932 0  1.503819781540653 0.5468420196858188 0  2.015409142866072 2.175941657590429 0  1.752057611265444 0.869642097111018 0  0.612251684107783 2.356045720700959 0  1.902817102342857 0.6607642211999982 0  2.159616561739693 0.7867739969338844 0  0.5120038350106624 2.197302352398502 0  1.888200216011548 1.919501662489862 0  1.495909909726654 2.16028358757309 0  0.489139876703609 1.443203008943564 0  0.8819175670410521 0.3301172743913011 0  1.882591144370812 0.8155965192707721 0  1.133979796994841 1.172526771862882 0  2.206217447916667 2.084147135416667 0  2.20361328125 2.36279296875 0  1.395746985657004 1.556054166359645 0  1.704383111516207 1.734750450338683 0  0.9575737847222222 2.36274223823052 0  1.035150984253136 0.1302833343179028 0  1.383966125325753 0.7651479963479179 0  1.64003252158672 0.6824316405528895 0  2.22550785055421 1.487078576356817 0  1.760964431499756 1.48495222505201 0  1.276460980673788 2.004207003584658 0  0.1341477688427096 1.828777507920502 0  1.542261434180652 1.155296658359034 0  1.334627911613854 0.9696897472490321 0  1.30794231473696 1.119420615785191 0  0.7028260459857245 0.4438906910721139 0  1.625757433094055 1.84268057552138 0  0.9818707849053143 1.165603626132254 0  2.0086489901463 1.243134585689553 0  1.934584460420609 2.374094051915812 0  1.798434376789567 2.38671361912528 0  1.206314791201715 1.382064292497919 0  0.6333752893366955 0.7023738550008095 0  0.7796219811205605 1.42573253164258 0  1.564399711917382 1.026040828857629 0  0.3385416666666666 0.4889012896825397 0  0.1041666666666667 0.390625 0  0.989112246382566 1.543537365516289 0  2.025724425454636 0.9846960595520872 0  0.6602885475034063 2.086117390485779 0  1.607130551925032 1.267198646640915 0  0.1317864544877056 0.8896173683400176 0  1.755387840017567 2.230364320056445 0  1.301540702984401 0.1216289692748247 0  1.433170657577442 0.3331052752740999 0  1.500459610550388 0.113513924782439 0  0.6494291520606965 1.029586599619295 0  1.010146149868299 0.794897284196169 0  0.3700844198238017 2.235390157870766 0  0.3360891767780704 2.36656279435396 0  1.876856241037701 1.437150669863757 0  1.778674102957329 1.245979347269706 0  0.5472829890977179 0.1005517127039925 0  0.4669074189005698 0.3416784232954367 0  1.472765289289269 1.850899166481903 0  1.555853593327178 1.608452097912802 0  0.6708955559113426 1.646561631116984 0  0.8164699620322933 0.5924479455478063 0  0.3167738989468366 1.758696809749795 0  0.2788007305565096 1.605499483471246 0  0.7821720982350511 0.181524936294752 0  1.376812251214195 2.313340247908297 0  1.785652202614777 0.5962261755537186 0  1.761467296310972 0.4679567244718574 0  2.2265625 1.8359375 0  2.3828125 1.9140625 0  0.5279531607054191 2.071552361614785 0  2.397573269551114 0.234375 0  2.383578172599618 0.3589298466020009 0  0.1024267304488855 2.265625 0  0.1164218274003825 2.141070153397999 0  0.2696857594953064 2.135405441512016 0  2.164961300137334 0.1375322943529536 0  2.137757548369486 0.2724194778647587 0  2.238873711826398 0.3626419179496562 0  0.1001414910226386 0.234375 0  0.2176339285714286 0.3478422619047619 0  0.2503620791333544 0.1061694061057066 0  2.336445461915368 0.1250451055247424 0  0.2154004640409726 2.3918124
[...]
<PointData  Scalars="f_16-3"> 
<DataArray  type="Float64"  Name="f_16-3"  format="ascii">2.2646533697136153e-04  -2.8427877459156993e-09  -1.4646623802054334e-09  2.6439208153639153e-04  -2.1780811935360868e-09  3.7617532014569172e-07  2.4459254201128207e-04  2.2645787344975545e-04  2.9207663589110171e-04  2.1381404148333662e-04  -2.6364532423509469e-09  2.2650535568169766e-04  2.2646496802682445e-04  -1.3874693891720976e-09  -1.7983806180985227e-09  3.8418101786449458e-05  3.8310869304687207e-04  1.0233160158406366e-07  2.4881572930061328e-04  2.2262828691771550e-05  1.0435312440970081e-04  4.9902762861024825e-04  4.2959180191091132e-04  1.3352780416841427e-04  2.8068032259350253e-04  2.2874313152227341e-04  2.1720144177339223e-08  2.3747104805127328e-04  8.2154652898964357e-08  -1.6423012405035232e-09  2.2649284780281204e-04  2.5001846636618322e-05  4.8681606172486079e-04  4.1184017732471753e-04  2.0872951113400552e-05  4.7792362035748635e-04  -1.7968047414852804e-09  3.4769192489731798e-04  2.6382512315139075e-04  5.8997431846587310e-05  1.2046712455810671e-08  5.5540490233119116e-06  -2.8522412317327208e-09  -2.1337363220884717e-05  1.3770120417179509e-04  3.7571465697394739e-04  2.4841321713448157e-04  5.1410838333427686e-04  3.4307914965240444e-04  -1.9762754203708999e-09  -2.3898991325005850e-09  2.2646549438266124e-04  -1.6176408041809532e-09  5.6460185748956655e-09  2.2630729225329505e-04  2.2646444546794555e-04  2.2799287975079429e-04  -1.4409094492902811e-09  2.2646517478100414e-04  3.0302458586749578e-04  5.7795652785531161e-06  2.1438305174304162e-07  3.0931685440061305e-04  3.1050977870922822e-04  4.8123615968880830e-04  2.2704409621019826e-04  3.0107646230566429e-04  2.9864441526596652e-09  2.2692488789255523e-04  1.1682551847736553e-06  4.4962021709976259e-05  6.8030941533293607e-07  2.2648427088974338e-04  1.2474033900150242e-03  1.9688613097999571e-07  8.4519826882357475e-05  1.1815774370833271e-04  2.7457571901090652e-04  4.0396401527697330e-04  -2.0272726506257913e-09  9.0935406713509028e-07  6.4181682703147986e-07  2.3959813338773486e-05  3.8806691632275681e-06  -1.0207706497174531e-09  -1.5099966893134102e-09  -1.5598839425489351e-09  2.2796817406284635e-04  2.2646552645060291e-04  2.2646539032693250e-04  -1.7006051799559934e-09  -7.2026711904423864e-10  1.8377934922705923e-04  1.8645671032122557e-07  2.4061213375236776e-04  3.5553888352332093e-04  2.2659529202297230e-04  3.9628147497205417e-06  2.8827056605226526e-04  2.2647798256654605e-04  4.0107637244567998e-04  4.3494893459811163e-04  2.4073366458644919e-04  1.4229187904462193e-04  9.0922955597972880e-09  8.8738294080944297e-04  2.2538728832749349e-04  5.7331809986745173e-04  3.0566616847616055e-05  3.4736793428005481e-04  2.3624600381694490e-04  2.2642057589511303e-04  2.3842011859268793e-04  5.5135138827109469e-04  1.9843007103416985e-04  1.6942090047326178e-05  1.5924886047309744e-04  1.6117063786471444e-06  3.8291987078457201e-04  8.6801691635046487e-05  2.8735959516580753e-04  2.2776518483442711e-04  3.9571553733362187e-04  4.8131880587112591e-04  1.3889563997296385e-06  2.0683744704567270e-04  7.2211813439683795e-04  2.6681270341055664e-04  3.3058905813547192e-04  -1.9446586366119413e-09  4.3301829894162079e-06  2.2825554378095282e-04  3.1949727742536932e-04  -7.3946120648435259e-10  -1.8015403827313938e-09  4.5941749327058616e-04  4.2134914342533417e-04  3.6601249115927767e-04  3.5157442921192154e-04  5.4066127828536329e-04  -7.1622409482470924e-11  1.0906382012705330e-09  -2.2806111288570514e-09  -2.1147152586601654e-09  4.5002396612691948e-05  1.6122766869486674e-05  3.2201183296830417e-04  3.7541415404477110e-04  2.2648088907920483e-04  -1.4720017131495151e-09  9.9983112058706452e-06  5.7024430640179483e-05  -2.4916038077491296e-09  3.7691621762174916e-04  1.0348164616474111e-04  4.9974843960121464e-04  8.6614946888619712e-08  -1.7367366516482882e-09  -1.8883908758571086e-09  7.7728087218170422e-06  1.5402996847371661e-04  3.9178191296416304e-04  5.3537096106789832e-09  -1.5402214555063214e-09  -1.4569337502900048e-09  2.2646534010158269e-04  2.2646527668849177e-04  2.2718777732259931e-04  3.2782607045626368e-04  2.3118322481519780e-04  5.6434818989006430e-06  2.2366191768138948e-09  2.1015874577306375e-04  -2.7876905045790292e-09  -5.6202992863278068e-08  1.5849347215872569e-04  1.5391531355990850e-04  7.9765310688768020e-07  3.6795553727769932e-04  4.4406931275651839e-04  2.5811744785450439e-04  2.7270288341090302e-04  2.6197764645778166e-04  9.0307083617961044e-07  2.2680131353719669e-04  2.2646848097675152e-04  1.5693704167925376e-06  2.3275507579050358e-04  -8.4565309414876684e-10  5.4673191823960743e-08  -1.7108201893441420e-09  -1.4265322147230596e-09  -2.0667068705517060e-09  -2.7731579792273708e-09  1.4850845455372921e-04  2.2646300793583668e-04  2.2646482596975017e-04  2.2646506852108043e-04  1.6189729388596440e-05  7.9946478458384874e-05  8.9635862856228109e-05  2.2649002670040635e-04  2.7135313982765716e-04  3.4691086452635022e-04  2.2752969918020719e-04  2.3169071903914536e-04  2.2655667256284615e-04  2.3033122428687755e-04  1.7062980164440613e-08  5.7199740045336370e-04  2.0765006989249059e-05  2.6651893356452894e-04  4.8330514467282287e-06  9.4989348733755522e-07  4.1375905091843058e-04  3.4333701594590918e-04  -1.4294717651833673e-09  4.2896318978173143e-04  4.3620402552344711e-08  3.5267214812494514e-04  8.3344867335136059e-07  2.2656060074862280e-04  8.3388705200133002e-09  7.6344273195789280e-09  2.2654359749969548e-04  3.0001760210160861e-04  3.7777226097310669e-04  2.4780495716705565e-04  1.7380515071306640e-07  1.3496370380451208e-07  3.2930777571667751e-04  2.1476478058510704e-04  3.3900978959518419e-04  3.9622587979373336e-04  3.0645899313533380e-04  2.3040530178757932e-04  -2.1983219575255549e-09  3.9290776873330536e-06  1.4641924530951142e-07  1.3095860034837034e-05  1.1694871370965578e-04  3.5851530734022630e-04  2.2646599356162281e-04  4.9514408566665641e-05  4.0269090814256346e-05  1.3269297567303516e-04  1.1704873658729647e-05  4.0111838726725684e-04  4.6938017588770054e-04  7.6473294341022304e-06  4.0106766003996562e-04  3.8855148857373290e-04  4.3059334584466145e-04  3.6812218424023594e-04  3.9829903818559099e-04  1.6521570195402772e-05  5.4376603998251307e-04  1.4162983281206993e-03  4.4900903102967693e-04  4.7188398804137356e-07  2.2770845846891130e-04  7.3376995301015037e-05  2.3831974531888917e-04  4.1011005273885320e-04  -2.1342055996899595e-09  -9.9097809429587462e-10  -2.0123628858521960e-09  6.0888516977397069e-04  7.5160986749521168e-05  2.2646954450036114e-04  2.2646595783922359e-04  5.3317369853144887e-05  2.7042106751705369e-05  -1.8830665055755935e-09  1.0824703676420518e-05  4.4603118889181327e-04  3.2077299403555031e-04  2.5552449449924892e-04  3.9697446226295433e-05  2.2657658970361659e-04  2.2668376683433478e-04  2.3618312797550543e-09  2.9367992269850021e-04  7.1462065779314843e-09  -9.8653691380123145e-10  8.7065769896186836e-05  6.6162579022137170e-05  2.2672035629793798e-04  -1.4861587436227342e-09  -1.4897923467360795e-09  2.2646522578138794e-04  2.2646515801742612e-04  2.2646661581815549e-04  -1.6243003746495434e-09  -1.6367685164801659e-09  -1.5770459953513393e-09  -3.1128595839394891e-07  1.9909645478136375e-04  -3.5229976844858116e-09  -1.5284879541239930e-09  2.2646533651919778e-04  2.4592578374604091e-04  -7.2951332059743885e-09  -1.8767429287399743e-09  6.2813380122312363e-06  4.9695392504099167e-08  2.4470673768099913e-07  2.2647220763896670e-04  1.7410740682948482e-04  5.7781824134463646e-04  2.2646509167850538e-04  -1.7597539181818611e-09  -1.4373970105643321e-09  -5.1123135792583516e-10  1.9705587315109216e-04  5.5129870606292523e-05  2.3511261392056271e-04  2.2728982617805472e-04  2.2588270668085988e-06  3.2422358765581780e-05  1.6294258886761487e-04  -1.7248516286554486e-09  6.5862175050940676e-04  2.8850446593195911e-04  3.2961830396697198e-04  -1.8738090322771309e-10  -2.3739430114486440e-09  2.3619503434613273e-07  3.0479752533656157e-04  2.3244468420386902e-04  2.6665447697024945e-08  2.4600342488041873e-04  3.7614496829704890e-04  1.0118564341548422e-04  2.3679159174823180e-04  -1.6547181679493390e-09  2.4217904752176655e-04  2.2722014634820388e-04  2.2648976243634498e-04  4.6297521011773220e-06  3.3083977710127076e-06  5.0843545284813801e-04  -1.9305738079298346e-09  6.7696135102465758e-07  3.7907611165012713e-04  -1.8381292536069845e-09  1.3424625739188784e-05  4.2500333252887512e-04  1.0650335336772807e-04  2.2676900679887324e-04  5.3037811482463252e-04  6.3409055776546849e-04  5.5905151662215703e-04  1.0279086358164922e-03  -7.0119191531751657e-10  2.2646543447104700e-04  2.2655399757481442e-04  1.1655129884059526e-06  2.3329213299429531e-07  2.6257190175281084e-04  2.2646530260048671e-04  2.6753923977603314e-04  5.9895041405786258e-05  1.2618534776548042e-05  1.7401284883461464e-07  3.8343342368325658e-04  -1.8873020235701378e-09  4.1676762961270102e-04  2.3929759204487409e-04  2.6308342694397546e-04  2.5466564032605661e-04  2.2646872593901017e-04  1.9940040826050205e-06  2.9532499337643533e-04  4.1003931809477855e-04  3.2295303532825205e-04  7.0711821152374905e-05  2.9594811299236615e-04  6.4759784427144082e-04  8.7822069570065055e-05  3.1453803218490280e-04  2.0835941747307055e-04  2.7569182440570763e-08  4.9438339990707288e-04  3.7493499260094897e-04  4.7676548047140109e-04  2.9441733859740250e-04  2.5359526073022914e-04  4.3453085555885200e-08  3.9417159924845470e-04  3.8395060396018508e-08  2.4305596368266941e-07  2.2979923456086367e-04  2.9727728394895759e-04  3.6880364422297310e-04  1.8307014966982926e-04  2.6170356040907972e-04  -1.8647566549247838e-09  3.3119144129059679e-05  5.1472702088032046e-04  7.3831621913724951e-04  2.2770442381941176e-04  1.9770195693120152e-06  4.0369789362545143e-07  4.3998759081452477e-04  2.9731172719875820e-06  3.3377604601740471e-04  2.5904275533948179e-04  6.8240850683743966e-04  -1.4946480480201021e-09  2.9115223542699473e-06  9.2208386371667284e-06  3.3331651139289822e-05  -1.5827263762085163e-09  2.2931400997096524e-04  2.3391015801677877e-04  5.2210906172885654e-05  6.9374967460271084e-04  4.9919018275043170e-04  2.2647656871963698e-04  3.9476660239394474e-04  4.2903704588321146e-04  2.4896056887399381e-04  3.7698456357014912e-04  2.9761037939581041e-04  2.7545408442708095e-04  2.3048355743578134e-04  2.1551995679096135e-04  3.6790231474682911e-04  3.2741181311295208e-04  -2.5500329350351515e-09  4.7894661583374761e-04  2.2772908333131892e-04  2.2710464021613808e-04  -1.6919449003418652e-09  -1.9073896754751800e-09  2.3115237863643892e-04  -2.0759983738041191e-09  4.1195475827650248e-04  -2.2850264480363750e-09  -1.4269803609251872e-09  2.2646614885319722e-04  2.0642078475183862e-04  -1.8106971283733127e-09  3.2806592491458014e-04  5.5691767038364365e-04  3.2267124023667199e-04  8.9789300458524243e-07  1.7649486816398963e-08  -1.5793522718333789e-09  4.5811440782109663e-04  2.2773347115809554e-04  3.3185546579022647e-04  1.0851909553083874e-04  1.3496509079910773e-08  2.2965312971291198e-04  2.9030435137905832e-05  7.8160794156933284e-04  4.7798647357176407e-04  2.3661937347005380e-04  4.4606065265203205e-04  6.6313006951748257e-08  2.3044384122401283e-04  -1.6603050166389457e-09  -1.6805033028857796e-09  2.4423404021403503e-04  2.3209016627766371e-04  4.8986669123832584e-04  5.8735887160458693e-09  7.0600846093286788e-04  -1.7471963028139890e-09  1.6789180162334102e-06  1.0133682007733606e-05  2.8740265546582570e-11  3.2726490143857155e-09  -1.5956535043883371e-09  4.4964123451485412e-04  4.0572704436441057e-04  4.6433698963621643e-04  2.8958813795915904e-09  2.2646600959623744e-04  3.9355701022483232e-04  3.3374180268918506e-04  2.2652800081888281e-04  3.9218509185477777e-04  3.2316897609906944e-04  2.1555645858197689e-05  -1.1198047323603712e-09  5.1746635876105695e-04  2.2676902426353490e-04  3.0198263220066336e-04  3.7715404512224883e-09  6.1836853617303560e-05  9.7914104650033629e-06  7.9694188454532494e-10  8.4465200139832206e-06  1.0471890451925776e-05  4.0785157858607216e-04  2.2646647079642987e-04  2.5650542862376530e-04  3.8285053941999331e-10  2.3086942106971976e-05  2.1256843746397986e-04  -2.8128595867454043e-09  -1.4150085964973778e-09  -1.4584560258199737e-09  2.3258890163424452e-04  -2.2800635250462774e-09  2.2657774045938057e-04  2.2647903466522501e-04  1.5163917473257956e-06  3.9515889085822589e-04  1.2235193956315271e-07  3.4380911143772427e-04  4.3354646661547781e-06  4.3121944409492180e-04  3.8867948507944775e-06  2.2646490066224444e-04  2.2676151225366596e-04  2.2646803896445391e-04  2.2647973396779995e-04  -2.2650148639095004e-09  3.4795305450166833e-08  1.8550051030571322e-04  1.3464416673221702e-09  2.2790894846544979e-04  2.4711014284478595e-04  9.8079791934723125e-06  3.4933779984800181e-06  1.3391786945593636e-04  2.2646509249090531e-04  1.0521952443948116e-04  -9.7055621249854193e-10  -2.1956475728197140e-09  -1.2688479506655503e-09  1.2355621671604191e-07  1.6482552137183539e-08  3.4600934133037795e-07  3.9619298766158014e-05  7.7020524805530743e-05  2.3859804180686750e-05  -1.4624963402922418e-09  2.6406774883169022e-04  -1.5811687702078119e-09  2.5882339962488850e-04  3.0789040003194226e-04  7.2336574160594765e-06  3.9284315819267584e-04  3.6421156851661906e-04  4.4043670086261569e-05  1.4358345628940692e-04  2.1440931055493245e-04  1.7611690319811122e-05  2.3714085643524238e-05  -1.5317948021395899e-09  2.2646532573726685e-04  3.0214016666778656e-04  6.6150767409299197e-07  1.4486413897775064e-04  2.3576856919504187e-04  -1.5758028439879886e-09  1.8155009654693160e-05  4.0759805102604863e-04  7.7832716747744946e-05  3.5316039324277703e-04  -1.4861106906376385e-09  1.6064060628305575e-04  2.2615840976896855e-04  -1.3231591073539098e-09  2.2646527007967628e-04  -1.9930346380003869e-09  2.7887972511928283e-08  3.6622706092824536e-04  2.1532757320425261e-04  3.4373905613813751e-04  4.0550441471217140e-04  1.0524295796963741e-04  3.8423905234743745e-04  2.4786854336298280e-04  4.6531100486464915e-04  1.4066211552295800e-06  4.4190053897680271e-09  2.6599122881850010e-04  3.9959375490827831e-04  8.9472605056416573e-09  5.8756650254417253e-07  5.5433838124020140e-05  3.3558242400071438e-04  2.8355033563998714e-04  3.5307341159647866e-04  3.6644959012877525e-04  2.4191605801487199e-04  9.5808012823118640e-05  3.6442144908683389e-07  6.6342246394125127e-06  5.0424026434259447e-07  4.7813164718527220e-07  2.2743083728002077e-04  2.0259777998604053e-06  -2.3977637685957921e-09  6.9777360939257894e-08  3.4880997694684448e-05  1.4919576810868334e-06  8.4299089174240009e-08  1.7796725718064891e-08  4.2771789205951804e-04  4.9261988662263221e-04  6.6109346333496495e-05  2.3010981036342755e-04  5.7986226726559758e-05  2.8879754454506885e-04  5.1811677529618035e-07  -2.3399794717371553e-09  1.3009524393537908e-04  -1.5313710856099597e-09  1.6284620988480118e-04  4.0229597214007829e-04  3.4687567298872477e-04  5.4419801143261426e-05  1.5169391479423708e-04  2.5071457227259290e-06  2.8312137158033286e-04  2.4984778057253801e-04  -2.8241776330074881e-09  -3.2336693579017518e-09  2.1786196404572608e-04  -2.1199331310383468e-09  2.5117455192869795e-04  -2.8554214729572325e-08  2.2646512970512776e-04  -1.4549205966742405e-09  1.6778979707694761e-04  3.1807687104584654e-04  2.7261480079790140e-06  5.5883884857573220e-05  3.4278446808793522e-04  7.6486932115339888e-08  3.9316582524709267e-04  -2.8013220838516898e-09  -1.5991576402913873e-09  -1.6810762213686421e-09  -7.8833174879148431e-10  8.2980855527935781e-07  8.4951787380470648e-04  2.2657290175144242e-04  2.3306870613449513e-04  2.3423512032679406e-04  2.8908524816384637e-04  3.3339408858494145e-04  -1.8818667857762431e-09  2.5835389304254493e-04  5.0881754424184403e-04  4.5293730470819763e-04  4.0638110057733543e-05  1.9259448096008423e-06  5.5701441017640742e-07  2.2646542858408323e-04  2.2653225340599404e-04  2.7696498193420288e-04  7.6295952696616448e-06  -2.2263008932948925e-09  3.5280316875599882e-04  2.2718889592105227e-04  3.8969004689792396e-04  2.2646531191600260e-04  2.2646533586913621e-04  2.5441927332477924e-04  2.2646470095017649e-04  2.2659221455573910e-04  1.0072399709147643e-05  -1.8373215877456535e-09  -1.9335420981407285e-09  1.4850213142197902e-07  7.4690409747041651e-07  3.1972205207637149e-06  2.2636832371049505e-04  2.2644719866960305e-04  2.2646194982313482e-04  2.3791525155766459e-04  2.2275167721256655e-04  -2.4397768566804730e-09  -1.7556702514614512e-09  2.2646501526693051e-04  2.2646536182812258e-04  -2.8410577995201342e-09  2.2646523142811015e-04  -1.4479169293765292e-09  -2.7193396589630588e-09  -2.0257721601982386e-09  -7.7410277766970432e-07  1.0294104429045380e-06  3.6876556432973405e-04  1.7137000045211123e-04  2.4197365626078550e-04  2.8951961680847763e-04  2.2646402858456083e-04  2.8376009018347357e-04  1.9945501162698607e-04  2.4804587873137687e-05  1.0562641115128326e-04  -1.4336304718526507e-09  3.7727493369611581e-08  2.8684465545506682e-04  4.1597502597848831e-04  2.2706111894034699e-04  2.2829447500098155e-07  2.5089302780288632e-04  1.2706046087378005e-04  5.6567618777374510e-04  2.6481721597758882e-04  5.5973409333204885e-05  -2.6944340609161510e-09  4.4230107477676896e-04  2.9394657179137706e-04  2.2649186328507225e-04  5.1738259568791765e-04  1.7275371257961659e-06  2.4507883508965409e-04  2.2652179377385031e-04  2.2646651772200766e-04  2.2650308702560428e-04  2.2675327290130309e-04  4.1447633064830197e-04  1.0553154203672426e-03  4.0128237646113617e-07  4.3310890687542906e-04  2.7857498866837597e-04  2.4907402675423139e-06  5.4364433955175653e-04  2.6262596593918794e-06  2.2663658910682135e-04  2.7323063090861150e-04  3.9906138400710610e-04  3.9526255698518173e-04  3.4875932251490424e-04  2.4818151737447105e-04  2.8162295698941822e-08  5.9607082097557699e-04  5.2548134394452028e-04  -1.7012325587587582e-09  1.0144742561296596e-07  6.6120174597673973e-04  2.9237924478611863e-08  1.0996871669199810e-09  4.1299376024887591e-04  1.1775153880269036e-05  5.0428208645288105e-05  4.8747886584015200e-05  4.1961290374969160e-05  2.8195912350732056e-05  2.3754016869402599e-04  2.4245565380239049e-04  4.0696250469144122e-04  2.8614923423942672e-05  1.5422749370647995e-05  2.2815617287023435e-05  1.0216278647187501e-05  2.2760558683111823e-04  2.2647171671981707e-04  3.1947027374004943e-04  2.2851340348157984e-04  8.1719813734139822e-06  2.2671387756436630e-04  2.2649736776267221e-04  3.0128117578832311e-04  2.2312166107853684e-05  2.0323758232731937e-08  2.0401673573895965e-09  2.2646998939792646e-04  3.1145767755276266e-04  2.2747305431411921e-04  2.3041639745594223e-04  2.2737974900195976e-04  1.4297629847978075e-04  -1.6104652290256956e-09  2.4987235946889611e-04  2.6365983749761793e-04  2.2663521311028903e-04  2.2648944394744293e-04  2.2648471481216857e-04  3.6197276688798032e-04  1.8842460910460012e-04  -1.8994712604563912e-09  1.8868697101644082e-05  1.0949256373205578e-09  6.3171289294389421e-06  3.8000945566959163e-04  3.4545461590569572e-04  2.3021527103094422e-04  1.0606638892929859e-04  -1.7193259132704090e-09  1.7625429170637513e-04  -2.0691188483873022e-09  3.9161052348620439e-04  7.2981094734305329e-04  -1.7706535837542925e-09  3.0999398029993064e-04  3.8416655490775670e-04  7.7508780836068903e-05  3.6237856618963162e-09  2.2646545091439206e-04  2.3633696815380124e-04  4.4068187744720084e-04  1.6864581857879081e-04  2.5751007416268952e-04  4.2763280228287203e-04  4.0004909998920336e-04  2.3653801950305724e-04  -1.5226762136377030e-09  1.4553279170845044e-07  4.7024596331539289e-04  2.6951631526599915e-04  2.6349493790510386e-04  2.2664994235530145e-04  2.2650434984593161e-04  -1.0365913876486930e-09  2.2646588781583728e-04  6.8567143996517790e-09  -1.5565378340686454e-09  3.6536889165929943e-04  2.2654810620068936e-04  -1.9776738446932081e-09  2.9890662596372583e-04  -1.6666072861532601e-09  4