<?xml version="1.0"?>
<VTKFile type="UnstructuredGrid"  version="0.1"  >
<UnstructuredGrid>
<Piece  NumberOfPoints="6486" NumberOfCells="12696">
<Points>
<DataArray  type="Float64"  NumberOfComponents="3"  format="ascii">0 2.5 0  0 0 0  2.5 0 0  2.5 2.5 0  1.25 0 0  2.5 1.25 0  1.25 2.5 0  0 1.25 0  1.25 1.25 0  0 0.625 0  0.625 0 0  0.625 2.5 0  0 1.875 0  2.5 0.625 0  1.875 0 0  2.5 1.875 0  1.875 2.5 0  1.770833333333333 0.7291666666666666 0  0.7291666666666666 1.770833333333333 0  0.9375 0.625 0  1.875 1.5625 0  0.642361111111111 1.163194444444444 0  1.341594827586207 1.883979885057471 0  0.46875 0.46875 0  2.03125 2.03125 0  0.3626104797979798 1.513178661616162 0  1.381740196078431 0.4564950980392157 0  0.9375 2.172619047619047 0  2.172619047619047 0.9375 0  2.096354166666667 0.4036458333333332 0  0.4036458333333333 2.096354166666667 0  1.684027777777778 1.163194444444444 0  0.3418803418803419 0.8693910256410255 0  1.642742622813391 2.162164207604464 0  1.275619849389031 0.8465650753054845 0  0.9136284722222221 1.434461805555556 0  1.732437511238546 0.3406962303960658 0  0.9714402568595876 1.029779313093998 0  1.52281746031746 1.485615079365079 0  2.1875 1.71875 0  1.06819722569879 0.2997236128493951 0  2.136114211309524 1.303478422619048 0  0.3125 0 0  0 0.3125 0  2.5 2.1875 0  2.1875 2.5 0  0.3200021620376328 1.192323085056694 0  0.6738456129277992 0.8304377375553881 0  1.757891808928991 1.861952730357003 0  1.5625 0 0  0.9375 0 0  0.3125 2.5 0  2.1875 0 0  2.5 0.9375 0  0 0.9375 0  0 1.5625 0  0.9375 2.5 0  2.5 0.3125 0  0 2.1875 0  1.5625 2.5 0  2.5 1.5625 0  0.7448220909826522 0.3003573636608841 0  1.027298850574712 1.871151477832512 0  1.331260495098891 2.197262878816185 0  1.207917681892289 1.582765010956622 0  0.4339993447432606 1.801186844743261 0  0.6337298768939392 1.443093039772727 0  2.049851190476191 0.6826636904761904 0  0.6584821428571428 2.219122023809524 0  1.89575676467455 0.9798457973793544 0  1.437570562095628 1.059380588255917 0  1.502090052505845 0.6987070896496241 0  0.2040860661083546 1.705323965099331 0  0.2083333333333333 0.46875 0  0.5070952039991439 0.2211150679997147 0  0.6916302856529919 0.5813591430410241 0  2.265625 1.953125 0  2.2265625 2.2265625 0  1.886424081252096 2.243391360417365 0  1.40625 0.202164758520858 0  0.2269345238095238 0.2269345238095238 0  1.152730869673694 0.5225850378741401 0  1.885631899587912 1.312095130148776 0  1.614808884009367 0.9049784971014416 0  1.890095442220658 0.5126535558463003 0  2.323168682795699 0.46875 0  2.268811725689575 0.2304742875213018 0  0.6002389442105756 1.967426444210576 0  0.1768313172043011 2.03125 0  0.2311882743104251 2.269525712478698 0  2.03125 0.176831317204301 0  2.280262553344767 0.6954945504579233 0  1.979219539285994 1.809922269642997 0  2.336309523809524 1.09375 0  1.09375 2.336309523809524 0  0.9314042474388009 1.662973812215543 0  0.1634067999087722 1.40625 0  2.337090640094896 1.40625 0  1.141616997467638 2.069311773587991 0  0.46875 2.338939559681489 0  1.542440307908715 1.734944797244472 0  1.556713687786879 1.956977865354753 0  0.8264238995344066 1.975424467820646 0  1.466326331454725 1.275271369760862 0  1.655675324257095 0.5444159974393489 0  0.3385416666666666 0.6479255698005697 0  0 0.78125 0  0.5236073939200119 0.984090461540625 0  2.091665741047893 1.519793517904215 0  1.71875 2.5 0  0.5356538886262603 1.623137930505009 0  0 1.09375 0  0.1932884281517095 1.015625 0  0.8569313582417669 1.2198915584249 0  0.8876981284879677 0.8329884081524883 0  1.115618488474214 0.7219586973356271 0  1.186950366204949 1.043465130075318 0  2.057459118787237 1.110823087309335 0  1.830651283878689 2.049810069572418 0  1.689107969301489 1.367247437031697 0  0.4921048768039656 1.298643370653124 0  0.8213975694444444 2.336309523809524 0  2.03125 2.5 0  1.049729400480002 1.283723261332814 0  1.308101375801673 0.6489479469700392 0  2.5 2.34375 0  0.4968777175037714 0.7562964879736076 0  1.40625 2.5 0  1.501347663534097 2.307027627307738 0  1.602813712048603 0.1926218191360736 0  0.8393082906308107 0.463778306132633 0  1.682663349152719 1.598471865581041 0  0.7774174680851571 1.560004941327907 0  1.554204170364662 0.3898593897892066 0  1.842184459051087 0.186443880058197 0  1.358107417651776 1.696381759610015 0  1.18859291992392 1.77598670078022 0  0.1875331222687418 0.7609599743339348 0  1.339536743965101 1.422080365801479 0  0.7788179348750389 0.9955343414928611 0  0.9062978492805438 0.1919636509126373 0  1.256007360640958 0.3160320559396114 0  1.09375 0 0  1.174986727221844 0.1594990293443933 0  2.34375 1.796875 0  2.318026474511116 1.589177949022232 0  2.34375 2.5 0  1.672742954892153 2.332882724550692 0  0.2683637361947215 1.874801596909639 0  2.174770749820102 0.5581009131310781 0  1.443279522965991 0.8870068372898454 0  0.3385416666666667 0.3571428571428572 0  0.78125 0 0  2.060421048269335 2.314363248763811 0  1.088078737088509 0.8967352118723447 0  1.087825368444708 1.454931510884769 0  2.018308232129541 0.8548495425854904 0  1.943987311736842 0.3246298523011434 0  1.71875 0 0  1.85337849796276 1.144833312386208 0  2.3486328125 2.1044921875 0  1.407588788651747 2.042968789119587 0  2.336309523809524 0.865366648092144 0  2.34375 0 0  2.5 0.15625 0  0.15625 2.5 0  0 2.34375 0  0.1638044648294291 1.242263417405867 0  0.356216654757926 1.032569427322806 0  0.3188217956111817 1.355736727000647 0  0.5924956460852111 0.36112522004736 0  0.6594216488965849 0.1603472116132387 0  1.841804599497131 1.72214349266521 0  0.15625 0 0  0 0.15625 0  2.115898634821499 1.894570904464496 0  0.7821877980253907 0.7129993435924866 0  1.003820447087786 0.4516053462784233 0  0.477562948779147 1.138333049293613 0  0.719493678605015 1.305655360135975 0  0.9772457618587566 2.020350128938537 0  0.8764738248887107 1.826219722709673 0  1.254787875123819 2.339010653832026 0  2.343597354852534 1.249982759769001 0  0.78125 2.5 0  0.46875 2.5 0  2.5 1.40625 0  1.09375 2.5 0  2.5 0.78125 0  2.5 1.09375 0  2.03125 0 0  2.5 0.46875 0  1.40625 0 0  0.46875 0 0  0 0.46875 0  0 1.40625 0  0 1.71875 0  0 2.03125 0  2.5 1.71875 0  2.5 2.03125 0  2.005424054645407 1.653223486966518 0  0.1538730573856537 1.559850281736677 0  2.33984375 2.33984375 0  1.166539506212474 1.922878979538754 0  0.3914885633949916 1.65887232812171 0  0.5795503163042564 1.766243562569382 0  0.399533125920212 1.946786875081388 0  0.7866324979014098 2.127719094551316 0  0.3654683023546834 0.1495701132219454 0  0.1527388747131078 0.6116379440619215 0  2.013737577140188 1.391056634712135 0  1.17635437372994 2.213329084238133 0  1.737118141866284 1.010577140843115 0  2.200707118087222 1.164723314085963 0  1.697018908736685 1.993548551451517 0  0.5387621649009668 0.6070503962352419 0  2.032805785855952 0.5330427622570983 0  1.082699501358059 1.667818725183932 0  1.503819781540653 0.5468420196858188 0  2.015409142866072 2.175941657590429 0  1.752057611265444 0.869642097111018 0  0.612251684107783 2.356045720700959 0  1.902817102342857 0.6607642211999982 0  2.159616561739693 0.7867739969338844 0  0.5120038350106624 2.197302352398502 0  1.888200216011548 1.919501662489862 0  1.495909909726654 2.16028358757309 0  0.489139876703609 1.443203008943564 0  0.8819175670410521 0.3301172743913011 0  1.882591144370812 0.8155965192707721 0  1.133979796994841 1.172526771862882 0  2.206217447916667 2.084147135416667 0  2.20361328125 2.36279296875 0  1.395746985657004 1.556054166359645 0  1.704383111516207 1.734750450338683 0  0.9575737847222222 2.36274223823052 0  1.035150984253136 0.1302833343179028 0  1.383966125325753 0.7651479963479179 0  1.64003252158672 0.6824316405528895 0  2.22550785055421 1.487078576356817 0  1.760964431499756 1.48495222505201 0  1.276460980673788 2.004207003584658 0  0.1341477688427096 1.828777507920502 0  1.542261434180652 1.155296658359034 0  1.334627911613854 0.9696897472490321 0  1.30794231473696 1.119420615785191 0  0.7028260459857245 0.4438906910721139 0  1.625757433094055 1.84268057552138 0  0.9818707849053143 1.165603626132254 0  2.0086489901463 1.243134585689553 0  1.934584460420609 2.374094051915812 0  1.798434376789567 2.38671361912528 0  1.206314791201715 1.382064292497919 0  0.6333752893366955 0.7023738550008095 0  0.7796219811205605 1.42573253164258 0  1.564399711917382 1.026040828857629 0  0.3385416666666666 0.4889012896825397 0  0.1041666666666667 0.390625 0  0.989112246382566 1.543537365516289 0  2.025724425454636 0.9846960595520872 0  0.6602885475034063 2.086117390485779 0  1.607130551925032 1.267198646640915 0  0.1317864544877056 0.8896173683400176 0  1.755387840017567 2.230364320056445 0  1.301540702984401 0.1216289692748247 0  1.433170657577442 0.3331052752740999 0  1.500459610550388 0.113513924782439 0  0.6494291520606965 1.029586599619295 0  1.010146149868299 0.794897284196169 0  0.3700844198238017 2.235390157870766 0  0.3360891767780704 2.36656279435396 0  1.876856241037701 1.437150669863757 0  1.778674102957329 1.245979347269706 0  0.5472829890977179 0.1005517127039925 0  0.4669074189005698 0.3416784232954367 0  1.472765289289269 1.850899166481903 0  1.555853593327178 1.608452097912802 0  0.6708955559113426 1.646561631116984 0  0.8164699620322933 0.5924479455478063 0  0.3167738989468366 1.758696809749795 0  0.2788007305565096 1.605499483471246 0  0.7821720982350511 0.181524936294752 0  1.376812251214195 2.313340247908297 0  1.785652202614777 0.5962261755537186 0  1.761467296310972 0.4679567244718574 0  2.2265625 1.8359375 0  2.3828125 1.9140625 0  0.5279531607054191 2.071552361614785 0  2.397573269551114 0.234375 0  2.383578172599618 0.3589298466020009 0  0.1024267304488855 2.265625 0  0.1164218274003825 2.141070153397999 0  0.2696857594953064 2.135405441512016 0  2.164961300137334 0.1375322943529536 0  2.137757548369486 0.2724194778647587 0  2.238873711826398 0.3626419179496562 0  0.1001414910226386 0.234375 0  0.2176339285714286 0.3478422619047619 0  0.2503620791333544 0.1061694061057066 0  2.336445461915368 0.1250451055247424 0  0.2154004640409726 2.3918124
[...]
<PointData  Scalars="f_49-3"> 
<DataArray  type="Float64"  Name="f_49-3"  format="ascii">3.0093069911620808e-17  5.3869189556537256e-10  5.2616981890701649e-32  4.4199183860076415e-25  -5.5178225561668408e-16  -1.1513522971089139e-27  2.5525750579998186e-16  -2.8621370686614958e-05  3.2487377006043155e-06  -1.0071804507544067e-04  5.6211510182228960e-11  2.1720078588013973e-17  -1.5399314757355669e-10  -4.7534329106106497e-32  -3.2037862353008539e-24  1.6795358870247828e-23  1.4106376881155342e-18  1.8866665123347443e-19  6.8318709708127334e-08  5.6794851059035548e-09  3.8381224536913389e-13  1.1318214132812179e-03  3.9960586866479851e-09  3.0251429145238998e-08  2.0392197450699502e-16  -1.2225276113672682e-06  -8.9171123613125358e-17  3.7330265818055376e-12  2.1545889178390740e-24  -2.5117770506209259e-26  1.5607022274721776e-12  3.8945003577324761e-12  1.4536483836879639e-03  2.1863484875228995e-13  -1.0393573426146248e-10  1.0183622181595919e-04  1.1284625264603155e-21  1.0776530846496654e-04  7.8064812949992764e-09  4.6527294088488189e-18  1.0826436155671459e-15  1.8653133177508189e-19  2.8622337876439894e-10  6.5448343556041954e-07  1.2895177291236610e-23  1.1276506819198604e-21  -2.9183979108275706e-05  5.6951103964605063e-04  1.3626891512898713e-12  3.9936946220485458e-20  2.8227998461603255e-13  8.7001355438011836e-18  5.2156700834336426e-28  -6.9485550363309601e-31  -9.0564263159155934e-05  -5.7785490090324893e-07  1.2149578773292099e-17  4.3066336074297638e-32  1.7043943997187008e-13  7.1521837475658270e-17  5.4946338382071854e-25  8.7204322522331299e-12  3.0192968267005604e-08  2.1700900729624548e-12  1.4923142736146252e-06  -2.5401212883405267e-09  3.7243993596079296e-05  3.3024259699392131e-25  6.2953439349105072e-14  8.7131642769758695e-19  4.2448431775414200e-09  -1.6422042520557086e-15  -3.0060581998101177e-08  1.5474432425549372e-04  1.2179272090697665e-10  4.3445606185218041e-07  1.5497115666093877e-19  6.0301627848520111e-20  2.2042506364774234e-16  -2.4149331549593717e-17  8.5670508855024002e-10  7.5532048955322993e-14  8.1298744148326437e-15  -1.5885407491791759e-14  5.3664113775705067e-23  -1.6516376907162413e-29  -2.0567911623297871e-30  1.9015177542388929e-11  4.4039543137506229e-12  1.0776659712770367e-14  -1.2571719399988248e-25  2.2172761694384416e-28  5.0001654766627643e-15  -1.4543764637643068e-25  3.3056960725891174e-14  2.5262900829702556e-06  -6.3059948981478803e-06  2.9737977090311218e-23  1.7275308322997591e-10  2.5492605069636048e-15  1.0043304472111425e-09  3.5447987345469668e-11  6.2149762387399278e-10  2.4570543210937030e-08  -2.2655888055046913e-20  2.3207976319937771e-03  -9.9576713657121229e-05  2.0237061960334548e-03  9.3073948406518948e-18  1.7615943480933452e-17  -1.4290943793279200e-08  -6.3241159045705411e-05  -8.0509711429521967e-05  5.8448990081301109e-04  2.0576122671819345e-05  -4.9005987980847702e-10  2.4924326168873324e-06  3.4371063543661339e-22  2.0605608563444478e-14  5.0918442592062332e-11  4.5815092529545198e-05  2.8141197389527719e-15  6.7711716117111240e-20  5.7502037134820791e-05  -8.5643383691982556e-14  3.0670138383446154e-24  1.5320197021340999e-03  2.2407352339132454e-16  3.2873728367722734e-14  9.9319383566288325e-21  8.3678392090547737e-12  8.6054144476664590e-11  1.1984519831009913e-05  -1.1024982642117987e-18  1.4473696219646164e-23  5.6859679807347913e-08  1.2444075738734151e-07  5.9210926952785170e-04  4.5378133219831777e-07  8.8236524533240302e-04  7.6619368888729063e-13  -1.2719731099551602e-15  -6.8965919174862253e-15  -4.9052829980376550e-15  1.1179065388543134e-20  1.7964124626715414e-21  1.9533671932782821e-23  2.3849273589739373e-15  -2.4856629695455307e-10  2.1180262270379587e-27  9.3974566888366786e-14  4.0712333494970245e-08  6.4933169133836703e-12  7.2710099278005963e-19  1.1405611498740471e-06  2.0132801871592086e-05  2.3121635210776829e-22  1.6720198159114176e-24  1.2279627085804199e-21  -1.2951787371771682e-15  3.5813510080485747e-21  5.3210181739730559e-11  -1.7183549728735281e-28  1.3610276037253466e-29  -7.6460065290354582e-33  1.3267718396881751e-17  1.3905160668860328e-15  -2.7871305465093773e-05  1.8649555966149798e-04  -1.0256799952234906e-05  2.7181613084656494e-10  3.3584201282038019e-11  4.8618898202501521e-13  4.3613939868780423e-10  1.0994326545298780e-08  3.2771859551845659e-17  6.7341398922483703e-06  6.3304834531833233e-12  4.3294156209940592e-04  4.2681758263759899e-04  5.8107745257669081e-10  7.0297901874226857e-08  5.3869941933104109e-14  -7.1512817310995377e-25  1.1360423808916604e-17  6.2397435456552490e-18  -4.4558427605076351e-26  7.0899034846606914e-17  -4.6174897371232599e-32  4.2850495647973611e-29  -1.4353860055743001e-25  2.5202863706520240e-32  -1.2765086640436050e-18  1.6286165355049504e-10  -2.5239010428820429e-05  -6.9823936994097797e-06  -1.9111290997017946e-08  5.2289974415409689e-12  7.6524803106215085e-25  2.4814611672398086e-23  3.5732339067005490e-15  -5.8954569887742141e-07  5.5917318426908167e-22  6.4139459814370584e-09  -9.7323526842489138e-08  -8.6105201835833635e-11  9.8864227588187556e-12  1.6967865270168575e-12  2.3960476196596646e-10  3.0621702196980409e-03  1.7089998252247206e-16  3.4244422626929148e-12  -3.0961691223519739e-15  -4.7071953431848324e-23  1.1949949297795715e-12  5.3251835702515797e-05  7.1365065799435566e-25  1.6565029204249301e-06  1.2629527260905886e-19  3.3058011530971543e-17  -1.7205215058846865e-17  1.1361701704596527e-15  3.6740340268763999e-23  -1.3509215420235127e-25  1.4148419245116207e-13  2.5804095042298124e-14  1.3839772110901897e-12  9.9175986650204625e-07  8.5403125717520360e-13  1.5063228216142523e-20  2.0043535990809209e-05  4.4168198840915892e-19  6.6252333145644064e-21  6.6839319862441826e-08  1.7787423731217247e-11  2.0618625110028807e-15  2.0389661743900081e-14  -1.7387514049411921e-12  4.5152772028268591e-18  6.5972115912633513e-20  1.2634578115734483e-11  5.4806488351266217e-10  -1.5175972287361785e-09  4.0002950639842418e-10  6.3667643188436783e-09  3.5230669320570939e-07  1.0620238463254820e-09  5.0131342242645702e-11  1.9197783114900094e-04  3.0898420949467767e-17  8.5576775488662304e-18  8.4703875021143438e-17  5.8967328837420557e-06  1.1032094928192757e-04  1.1783309989823485e-04  1.0371159561917071e-11  2.0272440596771752e-05  -4.2481870232113755e-05  1.7641494550873905e-05  -6.9284319989728201e-21  1.8152774375231756e-12  3.8575885148357264e-10  -9.4946701557556849e-05  7.6334121918463297e-15  -3.0522243024500621e-16  -2.9147049561342028e-17  -1.1979880896232706e-19  1.8691361659729411e-03  6.6800446896610959e-07  5.1075506384253992e-14  3.6878883739742218e-16  1.1882358002742707e-13  2.7876058917808395e-13  9.0507415573785031e-11  3.7382177665919383e-10  8.1784338278970519e-10  1.3543743902239708e-09  5.7550820254850374e-07  3.3470789339791308e-08  -8.4094886038166772e-09  -2.9628677646613967e-07  7.7181201294531494e-12  4.7928666900201634e-14  4.8018609685456684e-22  6.9715914051151292e-22  1.4566830319121584e-18  2.7523536609998437e-21  3.2230832574745497e-12  5.4637957881259614e-31  8.5414090849067093e-31  2.1816362580838030e-14  6.8554197728042321e-13  6.1879622696577997e-13  -2.1893303552930028e-27  -4.9031272606356676e-27  -2.0449570881110167e-28  -3.6605740196045465e-08  1.1652839496019101e-06  3.6499961422206121e-10  4.7798132653558172e-30  4.7500424734983338e-16  1.7708921246072313e-12  3.6831523500740668e-10  2.0513148091796799e-21  8.9652533666623205e-11  -7.0849069348235538e-15  1.1570228013791706e-14  8.7510945779745219e-12  3.8274749560744076e-10  1.1614272619818024e-03  7.1772684046925549e-12  -1.0185405003631587e-24  -6.9748100582956836e-30  4.6328169987990669e-30  4.0054203266643542e-22  -2.1795829399287474e-08  9.2209087370888825e-10  -9.9713032513922677e-11  -1.2007205838848000e-14  -2.3569389582631644e-19  5.9709426355712819e-09  9.9997184293288847e-23  2.5284602655454747e-03  1.2052614149427366e-06  2.8887894841100296e-07  1.5129071328265924e-26  2.4316250953166239e-12  -6.7662276493198231e-24  2.2805530403161809e-11  -5.1154732056745753e-05  1.0685630710020536e-27  -6.6236884209091830e-05  3.5652310765101953e-04  3.4167266200474543e-16  1.4154742123601461e-15  1.6655570483135448e-24  3.0178843567861957e-15  -2.8712194082883552e-06  -1.5398239490512549e-05  7.4990812488015545e-24  3.9867776901464813e-22  5.3252899361310574e-04  1.1820527825707630e-20  -6.3255843047942366e-17  1.0008492874711841e-15  1.2445489982106152e-22  2.9891108903549237e-23  2.7981126332562734e-12  3.0966442276298980e-08  2.5999869531824816e-16  2.4483667460199521e-04  2.8850695741994515e-03  1.8958900621747469e-04  2.3631642864200015e-03  -3.5807868168568132e-20  -1.3376256526932608e-07  -4.4393106565153145e-05  -5.5564069378044571e-25  -5.3001406480461010e-27  3.2322691596460927e-15  3.0742043508874251e-16  1.1739598460858184e-23  9.3882839990735725e-15  1.5227775538586169e-18  4.4399403405996140e-16  4.1896107151582194e-20  -1.3607107246476490e-18  9.5975704361679070e-14  6.6066804098551230e-11  6.2938587888892741e-09  5.1176625908786169e-07  -2.6911811393989238e-06  5.5639262013755348e-10  2.3157535490867477e-18  1.0584017490525412e-08  4.6974880230478663e-05  2.3180328772610754e-07  8.5654982470399899e-16  1.8567733031764253e-03  1.0623972917234741e-06  1.0156807547306583e-04  2.2482815898771423e-05  -1.4172857455503540e-23  3.2588817126607585e-04  2.3282628867933290e-07  5.8039909033986226e-06  2.8665631341725721e-09  3.4443740454705105e-11  1.3418299810730409e-26  2.5538462083841800e-05  -1.0816579986321498e-15  4.7968411473079925e-11  9.1624353409503562e-14  6.6858917620629292e-05  1.8984955101512165e-04  3.2021699930356430e-18  5.0625114917554781e-08  -1.0391228954473498e-20  3.0775034145414462e-20  7.9998872892878613e-05  3.5433150919094722e-03  -8.4105899883799023e-05  -3.5021373804534488e-19  -3.3742585016167996e-22  5.9003455463019892e-07  -3.7720998154629397e-20  2.0679072150418150e-15  2.2141940827821835e-06  1.7322184110358499e-03  1.1982445145493526e-30  3.5603332359972506e-12  5.7125679211843851e-11  1.1649632187449450e-08  -1.6289087052390626e-27  -2.4801587812548013e-08  -4.2598759554431897e-07  9.5815553705997594e-13  7.9944518689217944e-04  1.3927073438901080e-03  1.1922904174658593e-17  1.3614105892084815e-05  4.3454712963519789e-10  9.3899025738310435e-14  9.2564430815507550e-14  5.6374675122473455e-05  1.6382376263670059e-05  2.1731220658628020e-10  6.0783713173174769e-12  2.7660545264436371e-13  4.3007491485320076e-15  1.9199034322827778e-11  4.2134446429297247e-06  1.6542129169757093e-16  7.0109912431236870e-15  -9.5000472592687877e-26  -1.1332804188256410e-15  3.4037746426297892e-11  -9.4412508413265084e-18  1.4542936881657507e-11  1.2996128218551417e-11  -8.5669082733109482e-29  -1.7547462109123235e-08  1.4824561691116911e-05  1.6520788484614143e-22  3.1639061367465950e-22  9.1637736530663988e-04  2.0363535353831803e-10  -1.2319981457059499e-14  1.6644710099157948e-13  1.0710773258614914e-28  5.1729415990180495e-07  -6.4791592510802924e-05  4.1594283906827907e-13  3.9133440376986607e-21  7.0473198096761560e-27  9.2910334563220188e-18  1.0090674667129214e-08  2.5108888817366808e-03  2.1344008697394900e-05  -1.0347805140712374e-04  6.3523472642860397e-09  4.6407922113339669e-18  -2.1990572151141916e-05  -4.9241879383463473e-27  -5.0375587817402642e-26  -4.1072032113458556e-06  5.8001065680915056e-14  1.5209342450785450e-03  -6.6418902111437623e-19  3.4817984193283155e-03  -4.8190921734517960e-25  2.4279825054341852e-11  6.5459621011184399e-10  -5.0830138379428794e-15  -2.3331865189073823e-16  -2.2735741943564465e-16  3.4807982769373027e-08  1.4501565872701880e-08  2.8325845505657139e-07  1.5949407448691232e-10  4.7261284272133564e-18  1.3692059132456611e-17  1.2766147138354206e-19  1.0537316817588614e-14  5.3435313832888589e-04  3.9024538353563486e-17  1.1379190206159602e-08  -6.2125993939726942e-15  9.1980926051875051e-04  5.9471973209773801e-13  1.9247365465906731e-05  -9.5071380223350458e-18  1.3903274562737256e-16  -2.0366398967135711e-12  1.0779330623430345e-31  1.0673609147651790e-21  1.2636061861062409e-15  2.6190892887099449e-15  -7.6965543477788168e-11  1.0903052276963826e-17  5.0274879257226085e-24  2.0735701454238418e-11  3.7735265676749361e-06  2.0441189078909894e-10  -5.0770090562343235e-33  -8.1298216835637381e-31  1.4158493348949064e-15  3.1857417846958829e-13  -7.6625370980702042e-10  -3.5845345642573963e-09  -1.2709410777044696e-17  5.9817115102967627e-19  4.1861580701147591e-14  2.2850747428221195e-11  5.9421552490481350e-11  9.5081421302637694e-04  -4.8505972692538556e-18  -2.4155506071365146e-09  1.2259373324293805e-11  1.0189331073837441e-16  3.0235533455441310e-16  -7.4456540282525838e-15  2.9967871857891007e-12  6.0448273344270721e-07  1.3101911555380963e-28  1.1422464954706798e-13  7.1568376767155998e-09  -6.4047265109095386e-15  -2.3330367003692677e-16  1.4675863584125475e-13  4.7487536198915927e-12  3.9250343933874476e-17  1.0909608537529269e-25  -1.7196889557484142e-15  -6.8241287008610938e-32  6.3120852660081078e-23  -4.4556632590210730e-24  -2.9876038382738473e-20  3.7303151989667225e-22  6.8779565610341503e-20  4.5852530357796728e-23  2.3640333272792877e-32  1.4955673974408056e-11  -1.4522383197338864e-26  -3.6710842573982413e-05  1.0486375580716225e-04  -1.3751059261853213e-13  2.3996241854349295e-14  1.4888668845421541e-16  1.2623565660498052e-11  2.4364742523698240e-22  3.4798730681209900e-20  1.4724521344835788e-10  2.1294264201164557e-10  2.6102687913624999e-30  1.2685854425255354e-13  4.9615420823095997e-07  2.0890079419015761e-12  1.6592143143267065e-14  7.9336734619277357e-14  -5.7063967222894718e-29  -9.2467025157190334e-09  2.4973791804115130e-06  9.1097504920129194e-09  3.4557637366334495e-08  2.4152078707493428e-31  1.2542355557032729e-11  -9.6472460357977806e-05  -1.1437479588843886e-30  3.5466650322304113e-15  -6.7073019596518338e-19  5.2565084690645372e-20  6.6228337432423033e-12  4.4708111231205230e-23  8.0133651892370676e-09  6.0025652132677574e-16  4.4140384045556966e-22  6.2530671603772397e-04  1.6689844409153968e-07  1.3968690045839319e-07  -4.3630961292869080e-23  -7.6355459966613040e-31  1.4415624935767662e-07  6.1714924538396522e-12  6.8553697963649665e-11  -1.1324747118385517e-16  1.3500687268331353e-23  1.8086333823288971e-06  1.0036167383987311e-05  1.5630000811191007e-04  1.1612381349925011e-10  -1.6712832845408698e-05  2.3404322121406945e-07  7.2172584972839246e-13  1.4127470633290461e-20  -2.1051362298227995e-19  5.7001874780023317e-11  -1.0263686679866201e-05  1.0642632114061795e-10  5.3513837993666469e-11  2.0767602182217402e-11  8.1410032238624245e-09  1.1158962796425182e-10  6.5365068505900624e-28  -2.3483023336895079e-29  1.7229278964978081e-06  3.8187407997061095e-05  3.3817524742054383e-08  -3.8958505882162722e-06  -2.7542074618673854e-07  1.8417015405414411e-12  -1.9458855461975350e-24  4.2217941812416791e-14  2.4347871389804952e-18  -3.1639866483024912e-28  4.3545876308026093e-20  6.1202630893615609e-10  2.9070347673248657e-18  1.7440108765316656e-07  3.6443386791622015e-16  -4.7434806745379036e-14  3.2022430882857888e-13  3.7913506797407714e-14  4.7197577934199041e-10  6.9382750578116458e-10  6.6231861272628109e-17  -5.0165690223753989e-17  4.3106598894138982e-21  9.3256144107695125e-10  9.8129001320826266e-13  1.3132731664675583e-31  7.5433649540786430e-06  8.7170465568197473e-05  -1.2230182299225512e-15  7.0872932991790374e-16  6.1613116870240290e-06  2.0385733569449942e-14  6.3693471831973358e-19  2.8892098233227326e-10  -3.0645379124239012e-29  -5.6689898378649065e-26  1.1191110659125112e-13  1.4225794305657134e-23  7.4313548706301049e-04  -4.6464434345173435e-08  1.8459798411282291e-12  2.8838770703813948e-11  4.0704669245952073e-08  5.7771533303752657e-16  1.5506748072742270e-21  1.5847826991196565e-09  1.5910139394166510e-04  8.7697077526968160e-09  4.6951904457660009e-15  -2.3581027656002241e-23  -2.7275338226267261e-26  6.4529396664884102e-13  -2.9104566255598480e-05  1.9781891544695420e-15  2.1422537517454625e-23  -2.3145911096675293e-15  1.0753201989785738e-22  1.0571533249761168e-17  1.3074804863561567e-20  2.1921650799538062e-16  2.3382254544553885e-17  1.8651455008524852e-16  -1.3297182110149138e-07  1.4733930036973685e-17  1.2478583185177998e-24  1.9831747414601934e-23  8.5019407544525270e-21  -1.0321927986890949e-28  6.7272924830502457e-27  -2.9229294107333032e-26  -7.7863373678465784e-05  -4.4230217040742321e-05  -1.5339023785974807e-05  1.4557799922398964e-16  -9.8591830236974363e-05  1.5246052638884008e-12  -1.1777253906262118e-24  1.2716431308943964e-12  1.2402788392046773e-17  3.7668474624314273e-10  1.5445174040455682e-14  1.4049291783575471e-32  1.1078761513769889e-10  -2.0909504158200103e-20  -1.1437031327945361e-08  4.1516649269639494e-06  4.6867328773301547e-18  5.9094195295762689e-24  1.9943419435127246e-24  2.4470698641881559e-24  -1.8737690420899120e-06  8.7569924641180023e-17  -4.6907035218149770e-05  6.2167312501662967e-24  2.4340771872652728e-23  4.0657684050087877e-32  5.2005142874905518e-23  3.3875025885375015e-12  5.0447824648789156e-06  1.2906465022049404e-16  1.7939925775788447e-17  4.0406520922385257e-15  -3.3620225065502277e-07  4.5188457875728851e-04  5.6241477133429652e-06  3.6608299550036555e-19  1.7937873872609838e-10  3.9403697365580665e-04  3.7791106066142405e-04  7.3073338841566421e-12  6.4741684252433561e-04  -2.1422294855753966e-12  5.2054358506348685e-11  -2.6113214199785274e-06  -6.5208594875118601e-07  -1.9828285408134243e-07  -1.4009001370409034e-05  1.0421894696310303e-03  4.4679558106648747e-03  -4.8877014803252006e-24  1.0591254473051077e-10  4.5186660683450553e-09  -2.7984260120101721e-21  6.1069057628775980e-04  -3.3667129996472578e-25  -1.0040451131805166e-06  3.0645280122480755e-10  6.6177403374065514e-05  6.6566115223751872e-04  1.2707795109404117e-07  7.1282503839989918e-10  -9.3501704570288293e-18  1.3962154110269877e-03  4.6311346181559691e-04  7.0881940945627827e-24  3.4246362042511791e-25  2.3294228250511644e-03  5.9901127358772660e-25  2.7885148812782505e-27  6.7230448399529643e-05  -7.7102277427583305e-15  1.3966403098843365e-08  2.0286884414040875e-12  7.0213204365385933e-08  8.8277116335811199e-20  3.1007110669029347e-08  4.1259556831881405e-08  1.1403373998625047e-12  4.7113063890750995e-15  6.3552675585688407e-16  3.7022374621036040e-17  2.3109816867943852e-17  5.0833972390683404e-13  -6.5597388477415410e-06  1.9373659599934316e-10  -3.5206063218562963e-09  -5.3569533323477561e-12  -2.7701443266367315e-10  -5.7931498298607334e-11  1.2461816755007134e-14  1.2104826124232484e-10  1.3220311494976430e-21  1.5118137200618219e-22  2.9777521432839444e-12  1.1557523558975155e-09  -3.3115988981608361e-07  -1.5184356649667138e-07  -1.9167586195407633e-08  3.3820181931031638e-06  -3.2887157439897337e-27  5.2943414940338929e-13  4.5322595177901767e-13  9.0286926514150102e-14  2.0008519184127908e-13  2.7136722817051874e-14  8.8475991592883810e-15  2.2608387087597842e-09  -1.1668217100186173e-17  6.4003935931838371e-20  3.1853588240312533e-30  -9.4002690156802956e-20  8.0503990544724392e-07  7.9346323224062772e-05  -3.5146331896044880e-05  5.7864809851936002e-10  -2.6579149971254478e-25  1.1471541275833485e-05  -1.9613092786874324e-16  9.2958857536340144e-16  2.6191826520495175e-03  4.6840865890141983e-24  6.7927621776743687e-17  1.0722486121923288e-16  7.8201724846214531e-22  1.3496530474646873e-25  1.0307792568644758e-16  -2.4744438487650264e-06  8.0382876300986077e-08  1.6707824480841052e-07  -3.0568326800103927e-07  4.9776072800410651e-12  1.3310401393921298e-13  3.2395655342560771e-09  -6.3313848282723307e-30  1.0621020600239802e-14  1.8350734599761191e-06  1.2093875742676314e-05  7.4515897157402983e-06  1.2105860737332275e-14  1.4456770271799680e-16  7.6504053774853115e-24  3.4166324869191915e-17  1.7908773236391500e-24  2.8153914402987505e-29  9.3452208382263985e-20  9.8236802648831770e-13  4