<?xml version="1.0"?>
<VTKFile type="UnstructuredGrid"  version="0.1"  >
<UnstructuredGrid>
<Piece  NumberOfPoints="6486" NumberOfCells="12696">
<Points>
<DataArray  type="Float64"  NumberOfComponents="3"  format="ascii">0 5 0  0 0 0  5 0 0  5 5 0  2.5 0 0  5 2.5 0  2.5 5 0  0 2.5 0  2.5 2.5 0  0 1.25 0  1.25 0 0  1.25 5 0  0 3.75 0  5 1.25 0  3.75 0 0  5 3.75 0  3.75 5 0  3.541666666666667 1.458333333333333 0  1.458333333333333 3.541666666666667 0  1.875 1.25 0  3.75 3.125 0  1.284722222222222 2.326388888888889 0  2.683189655172414 3.767959770114943 0  0.9375 0.9375 0  4.0625 4.0625 0  0.7252209595959597 3.026357323232324 0  2.763480392156863 0.9129901960784315 0  1.875 4.345238095238095 0  4.345238095238095 1.875 0  4.192708333333333 0.8072916666666664 0  0.8072916666666665 4.192708333333334 0  3.368055555555555 2.326388888888889 0  0.6837606837606839 1.738782051282051 0  3.285485245626782 4.324328415208927 0  2.551239698778062 1.693130150610969 0  1.827256944444444 2.868923611111111 0  3.464875022477093 0.6813924607921316 0  1.942880513719175 2.059558626187995 0  3.04563492063492 2.971230158730159 0  4.375 3.4375 0  2.13639445139758 0.5994472256987903 0  4.272228422619047 2.606956845238095 0  0.625 0 0  0 0.625 0  5 4.375 0  4.375 5 0  0.6400043240752655 2.384646170113389 0  1.347691225855598 1.660875475110776 0  3.515783617857982 3.723905460714006 0  3.125 0 0  1.875 0 0  0.625 5 0  4.375 0 0  5 1.875 0  0 1.875 0  0 3.125 0  1.875 5 0  5 0.625 0  0 4.375 0  3.125 5 0  5 3.125 0  1.489644181965304 0.6007147273217681 0  2.054597701149425 3.742302955665024 0  2.662520990197781 4.39452575763237 0  2.415835363784578 3.165530021913244 0  0.8679986894865213 3.602373689486522 0  1.267459753787878 2.886186079545454 0  4.099702380952381 1.365327380952381 0  1.316964285714286 4.438244047619047 0  3.7915135293491 1.959691594758709 0  2.875141124191255 2.118761176511833 0  3.00418010501169 1.397414179299248 0  0.4081721322167092 3.410647930198662 0  0.4166666666666666 0.9375 0  1.014190407998288 0.4422301359994293 0  1.383260571305984 1.162718286082048 0  4.53125 3.90625 0  4.453125 4.453125 0  3.772848162504192 4.48678272083473 0  2.8125 0.404329517041716 0  0.4538690476190476 0.4538690476190476 0  2.305461739347387 1.04517007574828 0  3.771263799175824 2.624190260297553 0  3.229617768018734 1.809956994202883 0  3.780190884441317 1.025307111692601 0  4.646337365591398 0.9375 0  4.537623451379149 0.4609485750426037 0  1.200477888421151 3.934852888421152 0  0.3536626344086022 4.0625 0  0.4623765486208503 4.539051424957397 0  4.0625 0.353662634408602 0  4.560525106689535 1.390989100915847 0  3.958439078571988 3.619844539285994 0  4.672619047619047 2.1875 0  2.1875 4.672619047619047 0  1.862808494877602 3.325947624431087 0  0.3268135998175443 2.8125 0  4.674181280189791 2.8125 0  2.283233994935276 4.138623547175983 0  0.9375 4.677879119362977 0  3.08488061581743 3.469889594488945 0  3.113427375573758 3.913955730709506 0  1.652847799068813 3.950848935641292 0  2.932652662909449 2.550542739521724 0  3.311350648514189 1.088831994878698 0  0.6770833333333333 1.295851139601139 0  0 1.5625 0  1.047214787840024 1.96818092308125 0  4.183331482095785 3.03958703580843 0  3.4375 5 0  1.071307777252521 3.246275861010018 0  0 2.1875 0  0.386576856303419 2.03125 0  1.713862716483534 2.439783116849799 0  1.775396256975935 1.665976816304977 0  2.231236976948428 1.443917394671254 0  2.373900732409897 2.086930260150635 0  4.114918237574474 2.221646174618671 0  3.661302567757379 4.099620139144836 0  3.378215938602977 2.734494874063393 0  0.9842097536079312 2.597286741306247 0  1.642795138888889 4.672619047619047 0  4.0625 5 0  2.099458800960004 2.567446522665629 0  2.616202751603346 1.297895893940078 0  5 4.6875 0  0.9937554350075428 1.512592975947215 0  2.8125 5 0  3.002695327068194 4.614055254615477 0  3.205627424097207 0.3852436382721472 0  1.678616581261621 0.927556612265266 0  3.365326698305438 3.196943731162083 0  1.554834936170314 3.120009882655813 0  3.108408340729323 0.7797187795784133 0  3.684368918102174 0.3728877601163941 0  2.716214835303553 3.39276351922003 0  2.37718583984784 3.551973401560441 0  0.3750662445374837 1.52191994866787 0  2.679073487930202 2.844160731602957 0  1.557635869750078 1.991068682985722 0  1.812595698561088 0.3839273018252746 0  2.512014721281916 0.6320641118792227 0  2.1875 0 0  2.349973454443689 0.3189980586887866 0  4.6875 3.59375 0  4.636052949022233 3.178355898044465 0  4.6875 5 0  3.345485909784306 4.665765449101383 0  0.536727472389443 3.749603193819277 0  4.349541499640203 1.116201826262156 0  2.886559045931982 1.774013674579691 0  0.6770833333333334 0.7142857142857143 0  1.5625 0 0  4.120842096538671 4.628726497527622 0  2.176157474177018 1.793470423744689 0  2.175650736889416 2.909863021769539 0  4.036616464259081 1.709699085170981 0  3.887974623473683 0.6492597046022868 0  3.4375 0 0  3.70675699592552 2.289666624772415 0  4.697265625 4.208984375 0  2.815177577303495 4.085937578239174 0  4.672619047619047 1.730733296184288 0  4.6875 0 0  5 0.3125 0  0.3125 5 0  0 4.6875 0  0.3276089296588581 2.484526834811734 0  0.712433309515852 2.065138854645612 0  0.6376435912223634 2.711473454001295 0  1.184991292170422 0.7222504400947201 0  1.31884329779317 0.3206944232264773 0  3.683609198994263 3.44428698533042 0  0.3125 0 0  0 0.3125 0  4.231797269642997 3.789141808928991 0  1.564375596050781 1.425998687184973 0  2.007640894175573 0.9032106925568466 0  0.955125897558294 2.276666098587227 0  1.43898735721003 2.611310720271951 0  1.954491523717513 4.040700257877075 0  1.752947649777421 3.652439445419346 0  2.509575750247638 4.678021307664052 0  4.687194709705067 2.499965519538002 0  1.5625 5 0  0.9375 5 0  5 2.8125 0  2.1875 5 0  5 1.5625 0  5 2.1875 0  4.0625 0 0  5 0.9375 0  2.8125 0 0  0.9375 0 0  0 0.9375 0  0 2.8125 0  0 3.4375 0  0 4.0625 0  5 3.4375 0  5 4.0625 0  4.010848109290813 3.306446973933037 0  0.3077461147713075 3.119700563473354 0  4.6796875 4.6796875 0  2.333079012424948 3.845757959077508 0  0.7829771267899832 3.317744656243421 0  1.159100632608513 3.532487125138763 0  0.799066251840424 3.893573750162776 0  1.57326499580282 4.255438189102632 0  0.7309366047093668 0.2991402264438908 0  0.3054777494262156 1.223275888123843 0  4.027475154280377 2.78211326942427 0  2.35270874745988 4.426658168476266 0  3.474236283732569 2.021154281686229 0  4.401414236174444 2.329446628171927 0  3.39403781747337 3.987097102903034 0  1.077524329801934 1.214100792470484 0  4.065611571711903 1.066085524514197 0  2.165399002716117 3.335637450367864 0  3.007639563081306 1.093684039371638 0  4.030818285732145 4.351883315180857 0  3.504115222530889 1.739284194222036 0  1.224503368215566 4.712091441401919 0  3.805634204685714 1.321528442399996 0  4.319233123479386 1.573547993867769 0  1.024007670021325 4.394604704797005 0  3.776400432023095 3.839003324979723 0  2.991819819453308 4.320567175146181 0  0.9782797534072181 2.886406017887129 0  1.763835134082104 0.6602345487826022 0  3.765182288741625 1.631193038541544 0  2.267959593989681 2.345053543725764 0  4.412434895833333 4.168294270833333 0  4.4072265625 4.7255859375 0  2.791493971314009 3.11210833271929 0  3.408766223032414 3.469500900677365 0  1.915147569444444 4.725484476461039 0  2.070301968506271 0.2605666686358055 0  2.767932250651506 1.530295992695836 0  3.280065043173439 1.364863281105779 0  4.45101570110842 2.974157152713635 0  3.521928862999512 2.96990445010402 0  2.552921961347576 4.008414007169315 0  0.2682955376854191 3.657555015841003 0  3.084522868361304 2.310593316718068 0  2.669255823227708 1.939379494498064 0  2.615884629473921 2.238841231570381 0  1.405652091971449 0.8877813821442277 0  3.25151486618811 3.68536115104276 0  1.963741569810629 2.331207252264507 0  4.017297980292599 2.486269171379106 0  3.869168920841219 4.748188103831625 0  3.596868753579134 4.77342723825056 0  2.41262958240343 2.764128584995838 0  1.266750578673391 1.404747710001619 0  1.559243962241121 2.85146506328516 0  3.128799423834764 2.052081657715259 0  0.6770833333333333 0.9778025793650794 0  0.2083333333333333 0.78125 0  1.978224492765132 3.087074731032578 0  4.051448850909273 1.969392119104174 0  1.320577095006813 4.172234780971559 0  3.214261103850064 2.534397293281829 0  0.2635729089754111 1.779234736680035 0  3.510775680035133 4.460728640112889 0  2.603081405968802 0.2432579385496493 0  2.866341315154884 0.6662105505481998 0  3.000919221100777 0.2270278495648781 0  1.298858304121393 2.05917319923859 0  2.020292299736597 1.589794568392338 0  0.7401688396476035 4.470780315741533 0  0.6721783535561408 4.733125588707921 0  3.753712482075402 2.874301339727514 0  3.557348205914658 2.491958694539413 0  1.094565978195436 0.2011034254079851 0  0.9338148378011396 0.6833568465908735 0  2.945530578578538 3.701798332963805 0  3.111707186654356 3.216904195825605 0  1.341791111822685 3.293123262233967 0  1.632939924064587 1.184895891095613 0  0.6335477978936732 3.517393619499591 0  0.5576014611130192 3.210998966942492 0  1.564344196470102 0.3630498725895039 0  2.75362450242839 4.626680495816594 0  3.571304405229554 1.192452351107437 0  3.522934592621944 0.9359134489437148 0  4.453125 3.671875 0  4.765625 3.828125 0  1.055906321410838 4.14310472322957 0  4.795146539102229 0.46875 0  4.767156345199235 0.7178596932040019 0  0.2048534608977711 4.53125 0  0.232843654800765 4.282140306795998 0  0.5393715189906129 4.270810883024032 0  4.329922600274667 0.2750645887059072 0  4.275515096738972 0.5448389557295173 0  4.477747423652795 0.7252838358993123 0  0.2002829820452772 0.46875 0  0.4352678571428572 0.6956845238095237 0  0.5007241582667088 0.2123388122114133 0  4.672890923830735 0.2500902110494848 0  0.4308009280819452 4.783624996516437 0  2.104871305393774 4.438653689007242 0  0.2274454167838428 0.2274454167838428 0  3.446466574593436 0.4359605369011901 0  2.12354112127588 1.217588426759619 0  2.309175236825235 0.7888355970690434 0  2.556178570281936 1.054299163237582 0  0.578683248637
[...]
<PointData  Scalars="f_16-3"> 
<DataArray  type="Float64"  Name="f_16-3"  format="ascii">-1.3998934118376804e-52  -6.3264878077239713e-05  -1.0592613333903258e-53  1.2279400471556877e-76  -6.1969065688508693e-25  -1.5514172844916843e-60  2.8070225601240053e-60  9.4524047700790962e-24  -5.4536098018892688e-34  -3.0987379555709642e-11  -5.2188403315306801e-14  -1.2300359826939274e-56  -3.8809079727231383e-39  2.2113854323434936e-58  8.0251804339237814e-39  -1.4015890461494967e-67  7.0883752374243807e-67  1.1842821123491919e-40  1.8237855069722940e-40  -2.1130726777261014e-22  -2.4146504775404589e-50  1.0354451821491367e-23  -1.9002807908641222e-47  -7.4795198205907404e-11  1.8960875388094852e-62  -4.6975514697501204e-31  2.5746036256452591e-31  -1.2296115801660599e-48  7.3429107633245347e-53  -1.3387633035093337e-47  -2.3791282721198204e-46  6.2873200297176446e-42  6.6424843316524205e-17  -4.9798944253152271e-57  2.2807146080517305e-30  2.7700893887344034e-31  7.7878627196482788e-41  -1.3068469771469545e-26  -2.1705525670926399e-44  6.8366387589585994e-59  2.2902578079378016e-23  2.3144532135830834e-53  -4.5503432331140934e-09  -1.3653812937261951e-04  -4.8409805592149023e-72  5.7258285739741516e-72  4.9216701105836554e-23  -1.3521410955927816e-18  -5.1907745668937125e-53  1.4248707236025216e-30  -3.5876947521743237e-20  -5.8256182960576899e-55  9.4017952626040939e-47  9.1462713831260635e-59  -3.1041194317004785e-16  -4.5837559262153487e-32  -5.3267557300644369e-57  5.1398825132436322e-54  -1.1486387932887855e-45  -1.5679620460876648e-62  2.6826775425541673e-63  4.0035194058555593e-17  -2.2643235593513448e-43  -4.2121172222535462e-55  -2.6389159750271048e-39  -1.2387772897431163e-39  3.5475263398137292e-30  6.2789466394108425e-47  -3.0473797319848723e-50  -4.4111075243109372e-46  -8.0894707886335357e-37  -7.7275384320007526e-36  -4.3353538699962996e-37  -5.3063162018365314e-07  -5.4882542161908550e-12  -1.7341004373222478e-16  -1.2110772151742421e-64  -1.1518092180780018e-67  -4.8594852866342073e-62  -3.2347853565705057e-31  -2.3405545836215132e-05  -8.9346227247087104e-26  1.8061935813340775e-48  -3.0434788093832422e-38  -1.4290660590133754e-43  8.0771990179083475e-53  -3.8340701084695890e-50  9.4053678425939794e-44  -2.0569023210511530e-44  -5.4852911312118331e-49  1.1976041032876211e-43  1.3179728007562074e-54  4.4271051314593365e-57  6.9474592231645151e-56  -2.2006403241190240e-54  1.6196011385106740e-38  -8.2434157263172122e-28  4.5679603890200887e-60  2.1522100942790447e-49  -1.6870955458313921e-52  1.0447746214601892e-47  4.3339919814677358e-52  -1.3220869450010636e-44  1.9074227383266276e-40  -1.3697150459375065e-38  -9.8969641442287874e-13  -4.1391743563284447e-14  -8.0644377128422914e-19  -1.0719337642660770e-54  2.7804936378838742e-65  4.1840152732528002e-36  4.0479355157736478e-20  1.4501352907496949e-17  5.8700133346277880e-27  1.2508954618663375e-22  -5.3123575457186275e-27  1.4134040793608027e-30  2.4237287466619421e-51  -4.0859796170887621e-57  -9.5338639155461590e-44  -1.1552569461564190e-26  9.4095313724416631e-53  4.7875370777850636e-68  -1.9609753801812472e-31  1.5214842813998869e-30  -4.1400651839277746e-75  -1.3069764848018319e-15  -1.3305188216625709e-62  -4.2259499018853985e-58  1.2274423318169710e-33  5.2804293394060830e-18  8.8992769126920421e-48  -1.4665719935055232e-33  -6.1018866049922887e-36  -9.6685522932140920e-40  -4.7481354008293164e-43  -4.0579152857723935e-43  9.1094883318720704e-12  -1.5997154112264390e-39  2.5703530895586010e-22  -1.5346260757319304e-20  3.1306296456616900e-28  1.0713964709770017e-23  -2.7234092070328716e-26  -2.2751812808699617e-63  1.2309544323306242e-60  1.1344789112375909e-74  4.4225528194714320e-61  -3.3810974336369965e-41  -7.2686399705060436e-51  -3.1463765776464910e-34  1.0380771821960587e-08  -9.8968734773069061e-18  -4.2428814915678813e-67  -7.5301078570784688e-27  -1.4144092272237915e-34  3.1853476620728964e-48  -8.5083026141725636e-44  5.3767710391272896e-35  1.9611328205388972e-44  1.8346258763184958e-67  5.4814422477684290e-51  4.2873560992415725e-55  1.1700310233316225e-48  -3.2872081461104209e-53  2.9991851592800418e-54  -1.9151712595225563e-49  2.9645675057787200e-24  2.9699534595258781e-19  -1.9978230449994450e-26  1.7138234215905938e-12  -1.0933167940700043e-14  1.8716553680403056e-52  -1.0021672135280702e-05  2.9784267250413869e-03  1.1786010876107154e-59  2.6069801738064598e-19  1.3166480741738578e-22  -1.0210192870685182e-23  -1.0426140964743943e-27  -1.1474776120797991e-46  -1.4314279379665742e-40  5.0315017582562165e-57  1.4351729082051988e-58  -2.4794389539002681e-55  1.3966121413118381e-55  -1.4484138707072452e-62  -5.0665219601667310e-58  3.7919946243747668e-59  1.6606149484751952e-59  -4.9981568088634780e-42  6.7190488302381744e-56  2.1285780261723155e-27  -1.4846924160985889e-10  1.2069323341817898e-07  -3.5418933711323143e-28  -3.9199419223963461e-35  3.8446478623143062e-42  -8.5858256434778641e-66  -1.1351505736741256e-69  4.7727773342764723e-54  -1.3360310157894891e-31  -1.0118613507535460e-71  -6.9272847489297046e-46  2.8141947530457382e-37  -1.3335270760522930e-39  -4.4783689233266021e-43  6.9768446618186958e-49  1.1513669391760706e-08  8.3132292841909093e-09  7.1865123577709682e-53  9.2876408724502086e-54  7.5569823275858488e-41  1.5120971550060818e-52  4.7479104650493416e-54  7.3862476268895517e-14  2.6019480307547192e-47  -5.9408000011848814e-39  3.5637059540317897e-34  7.6060947108673788e-63  -2.9173745792942924e-41  -1.1466676739065165e-52  -2.9630127235382397e-44  4.4125000765196872e-50  1.0529439517566979e-48  6.0906067236121752e-56  -8.0984677981856354e-55  7.7872440217484868e-31  -6.3495618963120716e-20  3.2833065136041884e-44  2.1553043236197175e-31  -2.5215646351514439e-65  -2.6765326838437528e-68  9.6560086982484994e-43  -9.6768915196925281e-51  -5.8119864114525078e-54  2.3468026019597884e-23  2.0622536873319587e-32  7.0164631702497814e-39  -1.1001144093086007e-56  8.0848399526959344e-48  -3.6798801008697421e-49  -9.5122971917665926e-40  5.7370182902759546e-39  -9.2248693219122490e-33  -2.6813338182288810e-34  -8.2148169278503870e-17  -1.5781264145441038e-50  -6.5360756545761412e-28  -2.5420215803659723e-49  -7.3499887573826135e-65  3.2477725831422594e-63  -1.9485991509461515e-36  -1.9421125043620165e-16  -1.5870086623831209e-30  -1.7720124165335532e-38  1.5067362492460391e-08  -1.7364110588698475e-06  -1.6330319259636001e-34  1.0569508859595077e-48  2.2778631849082831e-46  4.9669252679054044e-42  4.0709095374461825e-15  -5.7601374992018089e-61  -3.6540763070025245e-28  -9.8539339321589405e-33  -4.2862218975550929e-31  1.2527493842587495e-21  1.8476122759439848e-24  -8.0069022599539768e-50  -4.1269536416189924e-53  8.8073746705813661e-50  5.7083606212607548e-45  3.5280593865527407e-12  2.7646115181102124e-11  2.9033147311897141e-49  -7.4842341992759686e-46  -2.0497786110257051e-35  1.1458875449947725e-18  -3.7939734445465852e-38  3.8644154233248879e-33  -1.4054675929945678e-17  1.3586920927055701e-57  -6.7181059328197629e-41  1.7390976549341134e-41  3.0396863904898403e-62  2.7405605732968685e-66  -3.3282980308563599e-46  2.0448938829024798e-51  -9.5590567325041818e-53  1.9838960856492995e-48  -3.2939895002549431e-45  9.4670671885262976e-48  -2.0508976228789479e-46  -2.4578632084664095e-47  4.1124123331866688e-49  7.1569769769507449e-03  -1.8031992685635936e-05  -4.1251449955439023e-06  2.8849101145319808e-49  -3.1998759225918238e-52  -1.4129143111101529e-51  -8.3852331109894639e-04  1.2983344013340040e-38  9.6108417964401721e-24  -1.0716380570868352e-25  -1.4657480611821833e-28  -5.8824952512080874e-44  5.0425441836618314e-45  1.0853773021095128e-26  -4.3159411253480230e-41  -2.6406422207007015e-41  1.7877557929501833e-55  -1.9452927268188961e-57  -2.0242920317286806e-70  -1.0238109943367387e-13  -3.4520718637486398e-42  -2.8791082389007912e-41  -2.0498502853021252e-36  -1.0757160861709989e-57  -1.9343427071246776e-42  7.3140838376469080e-42  6.1896884557454578e-17  -2.0102385896289203e-36  5.9136191285790377e-40  6.5830768682285855e-50  3.9336685255183584e-20  8.6293538403886678e-55  3.9640402435367198e-51  -4.5386771977562000e-21  -3.5608195522973049e-58  9.8726730741262678e-12  -2.3279783449161154e-27  -1.7454308418543196e-57  -2.1655046107932038e-59  -7.5664987158265919e-46  -1.0133844486047327e-57  -2.7295755907234022e-29  -4.3431895408236452e-27  -2.0786980343398428e-61  -1.4887847702764750e-55  -4.5979139779918782e-25  -1.4073949978616662e-34  -1.8064587948666849e-39  -1.8382046106664618e-60  4.8781606338031840e-38  7.5395617939031483e-64  -4.5388839241500614e-55  -1.1692982375906997e-36  5.4077606891693444e-54  -1.8824561760598991e-29  -3.9625616539615181e-13  2.2591649348994698e-11  -3.4077341352297346e-09  3.7210111722587217e-38  -6.4017620401248981e-34  -5.8596051897550063e-22  2.2042742754476762e-60  -2.1242130256267441e-58  -7.4610634435294937e-61  -5.8997955454664467e-52  1.0628687904971300e-75  1.1278113247983795e-52  1.2943472743449204e-54  2.9509033740988014e-31  1.5698409456709869e-69  -2.3210201529082043e-36  2.5802933375211101e-56  -2.2557721180615928e-45  5.1510673392712346e-44  -1.1724825590122002e-38  6.6286749868185749e-30  -2.7631292075012370e-10  -3.6823170376557714e-65  -2.9780774689805949e-45  -1.3534591692780657e-30  1.9127132741036569e-30  -7.5748647088176788e-60  1.7514768251625222e-19  -6.4960706583652468e-21  -2.3516210779698326e-20  5.3388012095966908e-25  -1.0706561404836668e-45  3.0599612862199297e-29  5.1372542614170255e-42  -9.8693547734919931e-37  2.6807955326428302e-48  1.6799144115913161e-48  -2.9750832058456524e-55  -1.1351473077394657e-33  -2.3631904273374935e-28  2.9905860442401649e-14  2.6158068205796886e-50  -1.1236570609540684e-15  8.9454065051114964e-24  -1.5275593593455966e-62  -3.9569645048585401e-40  -1.5166287923907385e-37  3.9034219850284372e-61  -5.9820260954476181e-31  -1.9768591962856939e-08  1.5983839842599809e-19  -1.0372323711285139e-47  -9.4241831935656827e-52  -1.4711316359538736e-39  8.2704005287880955e-51  3.4588000420210105e-60  7.8925890533239254e-33  -1.7331719345651839e-17  1.0761537582456180e-50  -7.6109488590642142e-27  7.9948112643026853e-29  6.8043010618042613e-28  -7.8156243619051186e-51  -2.2041016522263181e-37  2.3890773525281397e-33  -2.0970487138651294e-46  -3.3849464891508731e-13  -2.0314517136657822e-21  -1.3876139682567395e-56  2.8060258045884030e-32  5.6422532094258790e-49  -1.5233131426718799e-55  -1.6220974298629187e-57  -2.4050086198234909e-29  -4.5388289212582125e-25  2.2129259195061582e-41  -1.7971234128457692e-49  -1.1313868593017116e-56  -1.5139328788312215e-58  2.3365791352790076e-16  -2.5539389102041104e-36  3.4238858931977743e-55  -1.7816636726412187e-51  -3.6554820669994914e-45  6.7046677293510059e-28  -7.6357171660073122e-45  6.9512406532820803e-29  -1.1660729513411388e-52  1.5348277267074404e-17  -2.9998430006005830e-53  1.6466645902404520e-38  3.0080770028113441e-28  -6.4917690141410317e-42  -2.7347334446013392e-72  9.3882906615517390e-22  -1.3712309895124510e-48  1.4324099257782213e-33  1.2044904206698773e-20  -2.2735877403787217e-47  1.7669948222175237e-40  9.8061982204015056e-21  -6.1912066758547596e-57  7.0086562355897426e-66  1.9609768610631537e-53  -1.3928793085803432e-56  -4.5239208828974530e-24  -9.4826527018027648e-15  5.0008458392797026e-35  1.9891603569996224e-14  -6.2325746355957743e-47  2.8131478125149208e-35  9.3749952724793121e-25  -1.9317794380916654e-43  3.3460601644093622e-44  -9.3109819362157735e-29  -2.7242253206916918e-51  3.6565649416861352e-19  2.1962677445847986e-36  -5.7452533410976578e-11  8.5893364583496980e-42  -3.4560451737723676e-17  -6.1033298011165126e-20  -1.0160179371659831e-25  -1.3032607136295942e-30  3.9139565686666668e-30  -2.0407598820785072e-44  2.3306440845638365e-46  -4.1603668645500177e-42  -2.5874739509078440e-10  2.3692497747942283e-56  5.4319058488115043e-64  -1.3719960865948619e-66  -2.7916780556155034e-51  -1.0807901144699554e-25  -1.9368657479719951e-63  5.4657983717286570e-17  -2.5563465033655302e-23  3.1188577134998110e-25  -1.9624897456233245e-47  -2.7673669567942067e-32  -8.6001982846271949e-33  -1.2312532122051531e-56  -1.8833402789105763e-37  3.6374531867738885e-59  6.8985340357658577e-59  3.3580454901339762e-47  3.1759795509670054e-60  9.8576040254479600e-43  7.2001800933236184e-65  2.9891366625512151e-45  1.7299073532816751e-39  3.2103501796212855e-33  -8.0069680483004258e-09  -6.3304067409806993e-56  -3.4524236666095968e-54  -7.3195616286478097e-55  -3.1709916528468390e-21  7.6878217157354893e-41  -4.7257452767657933e-39  8.4897150475689670e-43  2.8455025095574836e-67  -4.7936639116976972e-22  5.1223993838236313e-52  3.3553794486750677e-23  -2.5155772248162577e-21  1.1068216630024800e-48  -1.5110045742618294e-37  -3.7513748266600850e-44  7.4249301932680817e-57  -6.1143257086426195e-54  5.0730767754230351e-26  -1.9522264845840930e-18  -1.9782680644245006e-35  -2.4061952718642615e-54  -2.1641854129239700e-49  6.1439524435188312e-41  8.7876705973279811e-43  1.2325963753998777e-43  1.4575130847126390e-52  -1.1967847733868736e-42  1.2210938362135508e-60  2.2375959313442422e-48  -7.8560650820491879e-27  -7.7698783478521510e-59  -2.0469384716461883e-51  7.4749784802971918e-48  8.3352549633565730e-47  -5.5806929850343672e-66  2.9107037558144520e-64  -4.5932486672164609e-63  1.5894969335320972e-52  1.8032588222645275e-51  -1.0932199406419541e-47  -4.9450419214712876e-21  -6.6174500489036135e-22  2.9169773785047190e-39  5.2118168072363075e-59  -6.8704846374092594e-64  -2.2640223224797752e-43  -2.9486000950726915e-69  1.6997027952447652e-68  1.4029359912660258e-32  5.2671347468160354e-35  -4.1098463554996414e-51  3.5047947425139147e-47  -6.3480902523962930e-39  -2.7989937800711865e-20  -9.8866117636261770e-55  2.7355749269171043e-52  -1.0039028110094431e-48  -3.0807995498437149e-07  2.5373921882391759e-08  -1.6573155877225187e-09  -2.2042018076701122e-44  -6.6667078082955657e-51  -2.0966772799811852e-48  -6.1773416225403254e-15  -4.0523869406059155e-59  2.3267662513372855e-50  8.5785285376147053e-33  -1.1584736302627333e-39  3.9015096285602499e-52  -3.1368368853023977e-73  2.1558945253908450e-43  4.4685641010739323e-62  7.0489123722438215e-68  2.0867947926554345e-13  1.9839991852219491e-31  -2.6571322218805530e-42  1.7048753247538807e-54  2.5570722801936444e-57  -4.7101051512683935e-39  2.2247680429085434e-54  -5.1687922149962557e-13  -1.5346295685270222e-37  -8.4385382847897801e-69  5.1321279176602046e-36  -1.2712411577673483e-19  -4.2143866863135938e-28  -6.5098510517926098e-50  2.5641691356987104e-26  9.2543724727467309e-33  8.2360596255576234e-25  -2.5418432424576409e-57  4.4457316097910684e-45  1.3768578455301862e-08  8.2469270020435767e-27  -1.1911190091331875e-14  -6.0751333727743105e-14  -2.2158109926495057e-16  2.5343847551039694e-11  4.0878691242121160e-11  1.1425436528286961e-58  -3.9573783660094091e-60  -1.0879166685192349e-38  -9.3639040680423451e-34  -2.7464832268397452e-35  7.4836127899217219e-29  -9.9199353181832748e-05  -1.0460146657404149e-52  1.5061517895564275e-55  3.5388122271178821e-22  8.2137087217111740e-62  -3.5069495169065690e-52  -7.1131486622959954e-65  -1.2250068212023435e-49  1.4367771311001604e-64  5.1063373107129470e-26  4.5256818979687431e-58  9.5454737327203084e-35  3.6555828192072608e-58  2.0823158223706490e-55  -1.6009828021310821e-05  -2.7889776962270248e-02  1.3692742174971471e-61  3.7621695589464364e-26  -9.4256253776543025e-71  -1.4864620462299160e-03  -9.7451105945481437e-45  -8.5135571362428465e-54  3.6485244973938151e-17  2.8040349452750490e-18  2.6726660954254405e-40  3.4097076120923991e-54  7.0869296527032376e-36  -6.4154854655043054e-24  3.8301766274959545e-68  1.4609018910073337e-07  -1.5405339197897925e-47  1.6302602389999912e-45  5.0171994603840305e-22  1.4766070156444635e-53  -1.7295613018028535e-10  4.5427262997120689e-36  6.4874575334276996e-49  -7.6302632408895682e-46  -1.7994499645634954e-42  1.8391981717779989e-60  -2.9593898127753056e-36  8.6104541138543137e-45  1.7541208064933715e-30  4.9213405267049927e-46  3.7599089755077900e-52  6.2673511837072187e-57  -4.8325237212985295e-59  -2.8386073164571442e-45  5.5999092959981745e-25  4.7811000496980920e-60  -5.1468773020242240e-61  -2.4894237198475822e-24  1.1721107048701366e-71  -2.8862098342495977e-56  -4.8470417141554232e-70  4.5545020237680466e-51  1.6998979516115251e-54  -2.6728877537412770e-60  -5.9189097575240301e-34  -9.1942738161734436e-56  -2.4228916496609204e-65  4.9172159355052920e-36  -7.9317840519480783e-33  -1.5636208545165507e-59  -2.3619237481522867e-61  -3.7677291094864465e-63  -1.8882220108930806e-19  -6.8462387513850989e-21  7.1951673965136181e-27  -2.9841938960871799e-59  -4.3961487944884135e-13  -4.3664747559386701e-19  1.7287516897528598e-41  8.6596686573961020e-41  -1.4605085492670238e-54  3.2757548652189624e-07  6.7516988307056445e-48  -2.4634010194983471e-53  1.3398018863164854e-12  -1.5326194830243050e-29  1.0308700802083720e-03  4.4274713529310745e-06  -4.7159861596759899e-67  -2.7937621444698042e-74  5.6452882361512465e-78  -3.7292835607061422e-76  -1.0230866712083985e-29  -5.2523454217590354e-62  3.1698874061834275e-09  -1.9960676901227636e-67  3.8923457711379452e-71  2.6451517675638363e-55  2.7895097467527178e-43  1.8263957915984686e-53  8.0455908152657127e-39  -1.9995271554011757e-54  2.4202458287584337e-33  -1.7446099217882879e-58  2.7412693597073119e-14  5.0529153472496154e-14  -8.6109827965292618e-12  -4.9934907307067986e-61  5.3516190810631213e-10  -8.5503813454843106e-22  -2.6790162149630377e-10  -4.6884892209150603e-45  1.2729822146798837e-27  6.2208696441529422e-25  2.5487392695524574e-47  -8.9773009357894367e-30  -2.5786379557563219e-32  -1.0216509905653004e-34  -6.4115107364542346e-27  6.1523411485409509e-11  4.6066517171634709e-09  2.0854389219050119e-54  1.6711555987338334e-50  -4.6633307428194884e-45  1.1739677621240382e-52  -2.8658682029501576e-16  -2.0326046994260914e-60  1.8976906918118327e-31  6.3154754779415736e-49  4.2911665846113196e-30  1.4536892498071663e-17  -2.3218434677124944e-40  -1.1098088726194784e-43  -4.9206645181815494e-33  2.1958187026051732e-23  -2.9356546259957223e-26  -4.2702462423180565e-43  -2.8720080176451403e-56  2.2516082758463213e-17  4.9497020113893451e-51  -2.9311087448093778e-51  3.9520705219214163e-31  8.0118151861312874e-41  -1.6518046798195514e-19  -6.4991547321398050e-45  -9.3050206952158195e-16  2.6778922708183435e-59  6.8051311963051929e-37  -2.5245187101292377e-37  -3.8631179363916178e-55  2.8135045395571655e-50  8.9126633057058980e-50  -4.7097887876442444e-53  -7.1822458328736600e-53  2.5963027975793803e-48  1.1410234663662266e-28  2.1624155049004809e-49  -4.7405968817409765e-39  4.8684810884825475e-30  -1.7769105862413385e-41  4.7709184776670817e-42  8.9777785044024581e-59  2.9947196908553617e-36  -1.3117287790831686e-41  -5.5405998163034746e-43  -4.5601100721337189e-47  -2.4272714570272756e-48  4.6671499792341664e-34  7.6404577422752681e-35  -6.2589870167983226e-38  4.6806642459553402e-29  -1.8873100999985764e-48  -1.3584132531824458e-53  1.1111589798457201e-56  -1.4985496310090984e-49  -6.5936684154756651e-47  8.2844705444634051e-51  4.7895918575799095e-59  -6.0926164699542378e-44  1.4319446084814689e-32  -9.0036669109064895e-59  1.3539569599785878e-58  -2.6186066544768682e-55  -3.8776249637341024e-39  -1.1275558916464226e-30  -1.4904429664065307e-22  -1.5092808030826823e-42  -4.9415858335524562e-43  -8.6386534477857727e-21  -7.9412390449611173e-31  -1.1317280418203253e-62  1.5698063047985411e-15  8.7597230561931696e-42  -3.8640027441966797e-62  1.2293401811515924e-61  -1.7593529993481930e-68  2.4748759531033829e-48  -6.5293556774631195e-54  -1.0035603257673177e-29  -7.4888497663539264e-43  -1.5084175888214286e-37  1.3043411640246660e-26  1.4665300551671468e-53  -2.2339945978982994e-55  -5.7075046538568062e-41  -1.4151817331407217e-50  -2.7270797880735388e-26  -7.5994700197762661e-39  1.519777