<?xml version="1.0"?>
<VTKFile type="UnstructuredGrid"  version="0.1"  >
<UnstructuredGrid>
<Piece  NumberOfPoints="6486" NumberOfCells="12696">
<Points>
<DataArray  type="Float64"  NumberOfComponents="3"  format="ascii">0 5 0  0 0 0  5 0 0  5 5 0  2.5 0 0  5 2.5 0  2.5 5 0  0 2.5 0  2.5 2.5 0  0 1.25 0  1.25 0 0  1.25 5 0  0 3.75 0  5 1.25 0  3.75 0 0  5 3.75 0  3.75 5 0  3.541666666666667 1.458333333333333 0  1.458333333333333 3.541666666666667 0  1.875 1.25 0  3.75 3.125 0  1.284722222222222 2.326388888888889 0  2.683189655172414 3.767959770114943 0  0.9375 0.9375 0  4.0625 4.0625 0  0.7252209595959597 3.026357323232324 0  2.763480392156863 0.9129901960784315 0  1.875 4.345238095238095 0  4.345238095238095 1.875 0  4.192708333333333 0.8072916666666664 0  0.8072916666666665 4.192708333333334 0  3.368055555555555 2.326388888888889 0  0.6837606837606839 1.738782051282051 0  3.285485245626782 4.324328415208927 0  2.551239698778062 1.693130150610969 0  1.827256944444444 2.868923611111111 0  3.464875022477093 0.6813924607921316 0  1.942880513719175 2.059558626187995 0  3.04563492063492 2.971230158730159 0  4.375 3.4375 0  2.13639445139758 0.5994472256987903 0  4.272228422619047 2.606956845238095 0  0.625 0 0  0 0.625 0  5 4.375 0  4.375 5 0  0.6400043240752655 2.384646170113389 0  1.347691225855598 1.660875475110776 0  3.515783617857982 3.723905460714006 0  3.125 0 0  1.875 0 0  0.625 5 0  4.375 0 0  5 1.875 0  0 1.875 0  0 3.125 0  1.875 5 0  5 0.625 0  0 4.375 0  3.125 5 0  5 3.125 0  1.489644181965304 0.6007147273217681 0  2.054597701149425 3.742302955665024 0  2.662520990197781 4.39452575763237 0  2.415835363784578 3.165530021913244 0  0.8679986894865213 3.602373689486522 0  1.267459753787878 2.886186079545454 0  4.099702380952381 1.365327380952381 0  1.316964285714286 4.438244047619047 0  3.7915135293491 1.959691594758709 0  2.875141124191255 2.118761176511833 0  3.00418010501169 1.397414179299248 0  0.4081721322167092 3.410647930198662 0  0.4166666666666666 0.9375 0  1.014190407998288 0.4422301359994293 0  1.383260571305984 1.162718286082048 0  4.53125 3.90625 0  4.453125 4.453125 0  3.772848162504192 4.48678272083473 0  2.8125 0.404329517041716 0  0.4538690476190476 0.4538690476190476 0  2.305461739347387 1.04517007574828 0  3.771263799175824 2.624190260297553 0  3.229617768018734 1.809956994202883 0  3.780190884441317 1.025307111692601 0  4.646337365591398 0.9375 0  4.537623451379149 0.4609485750426037 0  1.200477888421151 3.934852888421152 0  0.3536626344086022 4.0625 0  0.4623765486208503 4.539051424957397 0  4.0625 0.353662634408602 0  4.560525106689535 1.390989100915847 0  3.958439078571988 3.619844539285994 0  4.672619047619047 2.1875 0  2.1875 4.672619047619047 0  1.862808494877602 3.325947624431087 0  0.3268135998175443 2.8125 0  4.674181280189791 2.8125 0  2.283233994935276 4.138623547175983 0  0.9375 4.677879119362977 0  3.08488061581743 3.469889594488945 0  3.113427375573758 3.913955730709506 0  1.652847799068813 3.950848935641292 0  2.932652662909449 2.550542739521724 0  3.311350648514189 1.088831994878698 0  0.6770833333333333 1.295851139601139 0  0 1.5625 0  1.047214787840024 1.96818092308125 0  4.183331482095785 3.03958703580843 0  3.4375 5 0  1.071307777252521 3.246275861010018 0  0 2.1875 0  0.386576856303419 2.03125 0  1.713862716483534 2.439783116849799 0  1.775396256975935 1.665976816304977 0  2.231236976948428 1.443917394671254 0  2.373900732409897 2.086930260150635 0  4.114918237574474 2.221646174618671 0  3.661302567757379 4.099620139144836 0  3.378215938602977 2.734494874063393 0  0.9842097536079312 2.597286741306247 0  1.642795138888889 4.672619047619047 0  4.0625 5 0  2.099458800960004 2.567446522665629 0  2.616202751603346 1.297895893940078 0  5 4.6875 0  0.9937554350075428 1.512592975947215 0  2.8125 5 0  3.002695327068194 4.614055254615477 0  3.205627424097207 0.3852436382721472 0  1.678616581261621 0.927556612265266 0  3.365326698305438 3.196943731162083 0  1.554834936170314 3.120009882655813 0  3.108408340729323 0.7797187795784133 0  3.684368918102174 0.3728877601163941 0  2.716214835303553 3.39276351922003 0  2.37718583984784 3.551973401560441 0  0.3750662445374837 1.52191994866787 0  2.679073487930202 2.844160731602957 0  1.557635869750078 1.991068682985722 0  1.812595698561088 0.3839273018252746 0  2.512014721281916 0.6320641118792227 0  2.1875 0 0  2.349973454443689 0.3189980586887866 0  4.6875 3.59375 0  4.636052949022233 3.178355898044465 0  4.6875 5 0  3.345485909784306 4.665765449101383 0  0.536727472389443 3.749603193819277 0  4.349541499640203 1.116201826262156 0  2.886559045931982 1.774013674579691 0  0.6770833333333334 0.7142857142857143 0  1.5625 0 0  4.120842096538671 4.628726497527622 0  2.176157474177018 1.793470423744689 0  2.175650736889416 2.909863021769539 0  4.036616464259081 1.709699085170981 0  3.887974623473683 0.6492597046022868 0  3.4375 0 0  3.70675699592552 2.289666624772415 0  4.697265625 4.208984375 0  2.815177577303495 4.085937578239174 0  4.672619047619047 1.730733296184288 0  4.6875 0 0  5 0.3125 0  0.3125 5 0  0 4.6875 0  0.3276089296588581 2.484526834811734 0  0.712433309515852 2.065138854645612 0  0.6376435912223634 2.711473454001295 0  1.184991292170422 0.7222504400947201 0  1.31884329779317 0.3206944232264773 0  3.683609198994263 3.44428698533042 0  0.3125 0 0  0 0.3125 0  4.231797269642997 3.789141808928991 0  1.564375596050781 1.425998687184973 0  2.007640894175573 0.9032106925568466 0  0.955125897558294 2.276666098587227 0  1.43898735721003 2.611310720271951 0  1.954491523717513 4.040700257877075 0  1.752947649777421 3.652439445419346 0  2.509575750247638 4.678021307664052 0  4.687194709705067 2.499965519538002 0  1.5625 5 0  0.9375 5 0  5 2.8125 0  2.1875 5 0  5 1.5625 0  5 2.1875 0  4.0625 0 0  5 0.9375 0  2.8125 0 0  0.9375 0 0  0 0.9375 0  0 2.8125 0  0 3.4375 0  0 4.0625 0  5 3.4375 0  5 4.0625 0  4.010848109290813 3.306446973933037 0  0.3077461147713075 3.119700563473354 0  4.6796875 4.6796875 0  2.333079012424948 3.845757959077508 0  0.7829771267899832 3.317744656243421 0  1.159100632608513 3.532487125138763 0  0.799066251840424 3.893573750162776 0  1.57326499580282 4.255438189102632 0  0.7309366047093668 0.2991402264438908 0  0.3054777494262156 1.223275888123843 0  4.027475154280377 2.78211326942427 0  2.35270874745988 4.426658168476266 0  3.474236283732569 2.021154281686229 0  4.401414236174444 2.329446628171927 0  3.39403781747337 3.987097102903034 0  1.077524329801934 1.214100792470484 0  4.065611571711903 1.066085524514197 0  2.165399002716117 3.335637450367864 0  3.007639563081306 1.093684039371638 0  4.030818285732145 4.351883315180857 0  3.504115222530889 1.739284194222036 0  1.224503368215566 4.712091441401919 0  3.805634204685714 1.321528442399996 0  4.319233123479386 1.573547993867769 0  1.024007670021325 4.394604704797005 0  3.776400432023095 3.839003324979723 0  2.991819819453308 4.320567175146181 0  0.9782797534072181 2.886406017887129 0  1.763835134082104 0.6602345487826022 0  3.765182288741625 1.631193038541544 0  2.267959593989681 2.345053543725764 0  4.412434895833333 4.168294270833333 0  4.4072265625 4.7255859375 0  2.791493971314009 3.11210833271929 0  3.408766223032414 3.469500900677365 0  1.915147569444444 4.725484476461039 0  2.070301968506271 0.2605666686358055 0  2.767932250651506 1.530295992695836 0  3.280065043173439 1.364863281105779 0  4.45101570110842 2.974157152713635 0  3.521928862999512 2.96990445010402 0  2.552921961347576 4.008414007169315 0  0.2682955376854191 3.657555015841003 0  3.084522868361304 2.310593316718068 0  2.669255823227708 1.939379494498064 0  2.615884629473921 2.238841231570381 0  1.405652091971449 0.8877813821442277 0  3.25151486618811 3.68536115104276 0  1.963741569810629 2.331207252264507 0  4.017297980292599 2.486269171379106 0  3.869168920841219 4.748188103831625 0  3.596868753579134 4.77342723825056 0  2.41262958240343 2.764128584995838 0  1.266750578673391 1.404747710001619 0  1.559243962241121 2.85146506328516 0  3.128799423834764 2.052081657715259 0  0.6770833333333333 0.9778025793650794 0  0.2083333333333333 0.78125 0  1.978224492765132 3.087074731032578 0  4.051448850909273 1.969392119104174 0  1.320577095006813 4.172234780971559 0  3.214261103850064 2.534397293281829 0  0.2635729089754111 1.779234736680035 0  3.510775680035133 4.460728640112889 0  2.603081405968802 0.2432579385496493 0  2.866341315154884 0.6662105505481998 0  3.000919221100777 0.2270278495648781 0  1.298858304121393 2.05917319923859 0  2.020292299736597 1.589794568392338 0  0.7401688396476035 4.470780315741533 0  0.6721783535561408 4.733125588707921 0  3.753712482075402 2.874301339727514 0  3.557348205914658 2.491958694539413 0  1.094565978195436 0.2011034254079851 0  0.9338148378011396 0.6833568465908735 0  2.945530578578538 3.701798332963805 0  3.111707186654356 3.216904195825605 0  1.341791111822685 3.293123262233967 0  1.632939924064587 1.184895891095613 0  0.6335477978936732 3.517393619499591 0  0.5576014611130192 3.210998966942492 0  1.564344196470102 0.3630498725895039 0  2.75362450242839 4.626680495816594 0  3.571304405229554 1.192452351107437 0  3.522934592621944 0.9359134489437148 0  4.453125 3.671875 0  4.765625 3.828125 0  1.055906321410838 4.14310472322957 0  4.795146539102229 0.46875 0  4.767156345199235 0.7178596932040019 0  0.2048534608977711 4.53125 0  0.232843654800765 4.282140306795998 0  0.5393715189906129 4.270810883024032 0  4.329922600274667 0.2750645887059072 0  4.275515096738972 0.5448389557295173 0  4.477747423652795 0.7252838358993123 0  0.2002829820452772 0.46875 0  0.4352678571428572 0.6956845238095237 0  0.5007241582667088 0.2123388122114133 0  4.672890923830735 0.2500902110494848 0  0.4308009280819452 4.783624996516437 0  2.104871305393774 4.438653689007242 0  0.2274454167838428 0.2274454167838428 0  3.446466574593436 0.4359605369011901 0  2.12354112127588 1.217588426759619 0  2.309175236825235 0.7888355970690434 0  2.556178570281936 1.054299163237582 0  0.578683248637
[...]
<PointData  Scalars="f_10845-3"> 
<DataArray  type="Float64"  Name="f_10845-3"  format="ascii">6.7130977848710961e+02  1.3487792384075272e-02  1.6416505307229674e-03  1.5032510161203827e-03  6.5561927156782092e-03  1.5778077588191810e-03  8.4797946239609459e+01  4.9877894596809797e+07  6.4660143819866072e-03  -6.5094734696637772e+01  9.1023981565785429e-03  2.3612164788565210e+02  1.4796903682902450e+05  1.6131581412331384e-03  4.0227380297632367e-03  1.5572635477750587e-03  2.6174734029220732e-03  4.3952093931336712e-03  6.2926710319719632e+03  7.8165375969358099e-03  3.9911476380129415e-03  -2.4925627914908496e-01  6.2857840810390930e-03  9.6791791106441115e-03  3.2856988820822333e-03  8.5914101138365013e+05  5.9868755156255457e-03  2.1889555088688694e+03  2.8017764201088194e-03  3.1008818026986491e-03  1.5723721739146786e+04  4.7709088702897343e-03  -2.3863178900645590e+00  3.9352872350723739e-03  6.4325602248546769e-03  5.4349039528473076e-03  4.5728711832860496e-03  7.5401738786454904e-03  5.3757735913585606e-03  2.7346722651255453e-03  7.2816741231613606e-03  2.9329091765754201e-03  1.0473538946277778e-02  2.0633950462005727e-02  1.5538545319589716e-03  2.4498620287260802e-03  -6.2761333798061532e+03  8.9245364454635344e-03  4.3565409663327602e-03  5.2557504094711965e-03  7.7975470611768780e-03  4.3186428046199143e+02  2.7727409063445516e-03  1.5775460891374984e-03  -1.8026893409943598e+05  2.9586448657778925e+06  2.0075013033283940e+02  1.6305323524330735e-03  1.1093287083206198e+04  6.1465194020109704e-01  1.5548276408711491e-03  8.6017773694244282e-03  -9.8933010576505631e-01  6.7630998468130665e-01  6.4138780009940768e-03  2.0107358144589499e+05  -3.4998599077963277e+01  3.2875975316686143e-03  3.5811104297996339e+03  3.9023795669304038e-03  5.7725583616446289e-03  5.5084131344678390e-03  6.4266437854997476e+05  4.3934194901944770e-03  9.5911676157775898e-03  8.8278266000757517e-03  2.4330830420837483e-03  2.5062049741551486e-03  3.5148514723718233e-03  5.9048591247741582e-03  1.0278061121434791e-02  6.9417468706843106e-03  3.9553558571520210e-03  5.0562588302295102e-03  3.9354119354998640e-03  2.2421026646907544e-03  2.4572322023180392e-03  3.5566793863341278e+04  2.9836143735208385e+04  2.8185394408296224e+03  3.3834329383669497e-03  2.3726126809224045e-03  3.5550144693458526e-03  2.1660394365981914e-03  4.0991170917177635e+02  -1.2161277532743790e-01  8.8498946609766316e+06  2.1422925476345619e-03  1.6436071785924138e+01  1.2553423449556763e+03  5.1872894597648324e-03  4.7211287823883249e-03  6.9295187576612716e+03  5.6549364228657062e-03  4.8663402015609279e-03  3.4043391523387277e-03  -3.8878726923806721e+03  5.1645162479002260e-01  3.1262891545541533e-03  4.9660001589459562e-03  7.6437051818408188e+04  6.8404529202675296e+05  6.7350876820604117e+03  -1.1073107179046391e-02  7.9859505648028264e-03  7.0859179039593793e-03  6.8004171488836359e-03  3.2380121864670893e-03  3.9840206377205348e-03  4.7489248035278431e-03  -2.3041345405246497e+02  9.8168251960266127e+02  2.6257210546805792e-03  7.4062321697439190e-03  6.3115428169260614e-03  1.5270262258353512e-03  1.6148401561016209e-02  1.3364531741972545e+01  6.1688625528826613e-03  5.1019807339876969e-03  8.2163826594282580e-03  4.7508804334463828e-03  -5.0915529053391104e+00  5.2930744038758104e-03  4.1179547450811201e-03  5.7096518917368446e-03  2.7790427227520603e-03  6.7126753634251727e+01  6.0677221450307342e-03  6.4710117650815845e-03  7.9434207744717555e-03  6.4983875904432026e-03  7.1590447131307721e-03  6.8223565656665951e-03  2.1268618590911548e-03  2.2203663348505458e-03  2.0204297864715990e-03  2.4826974225816137e-03  1.2071205735794960e+05  2.7834143800486311e-03  5.7607338423722411e-03  1.0765847927811285e-02  8.4642665316902125e-03  3.0185794129753444e-03  7.2089607506797453e-03  6.6677118509483038e-03  3.3996015339337075e-03  3.7044086244284015e-03  4.6331535166199631e-03  4.0802579829893855e-03  2.0959179360391547e-03  3.9726251956254885e-03  2.1638452615884078e-03  2.1852928635582407e-03  1.6418361461360521e-03  5.7867059956783112e+02  2.5510805535656364e+03  2.4854607523526219e+05  -1.9756367355611058e+01  2.3327588798196361e+04  9.2372345647168709e-03  8.9532706046951925e-03  4.1061020779520974e-03  1.1659639184470199e-02  1.2949734147026713e-02  3.0089934405518226e-03  8.4339283040165587e-03  7.5450903680904270e-03  5.5702363075985687e+01  -1.6751591425106136e+00  6.1736260499324828e+02  1.6940948865594271e+02  6.0334396187835523e+01  2.1207884092333258e-03  2.4673285205903099e+02  2.8223811936660604e+02  1.5644633394269190e-03  1.5702740512482399e+02  1.5898087734556535e-03  1.5779621494483988e-03  3.3882358610822501e-03  1.6291738017307764e-03  5.9043872806914342e-03  9.7476773240310535e-03  3.4625544800201333e+00  1.2819664697527768e+07  6.7156310609375592e+05  3.0667063797155490e+04  1.5578829100123658e-03  1.5530139407791816e-03  3.4635307588754371e-03  2.5722663647543346e+06  2.0720306586640841e-03  -2.9944829714022225e-01  6.6074723208502564e+05  1.0013800324318650e+05  5.7643712155174704e+04  6.3318642586214501e+03  1.0238726471670701e-02  -2.5422413618759339e+00  3.4338660373751930e-03  8.0648822053922913e+01  4.5547179194554890e-03  2.6650706566790018e-03  4.4273680850077891e-03  9.3245240275660578e-03  3.3523276363348225e-03  -8.6855724113926829e-03  5.4882482474463536e-03  3.2812402615261574e-03  4.4824915942750917e-03  1.1139416578743133e+03  3.8815472642004622e-03  2.8501526753353995e-03  5.3641512438011541e+03  3.8529917421584623e-03  1.0370136957279185e-03  -3.4782614128549371e+03  8.0437407472775009e-03  3.9411961488870721e-03  6.9170454530977860e-03  2.6295767549088752e-03  2.5401162840505320e-03  5.8117417259668999e-03  4.6069747446606931e-03  6.2645887339824094e+02  7.4079831712095048e-03  5.9956281334480827e-03  4.9343237055583288e-03  2.5810487073380487e-03  4.4531425759331391e-03  -1.9145903413392760e-02  2.0964195770167757e+05  5.3467315911010322e-03  6.1929402201187202e-03  6.3092342150913071e-03  8.7778789647064894e-03  4.8303636591324611e-03  7.0194557601791210e-03  3.4483858324177905e-03  3.0793365181951732e-03  3.0109351644052669e-03  6.5739433003461573e-03  8.8904559779368324e-03  2.1509662260326694e+00  5.2608461423403734e-03  1.3250540900371243e-02  -5.0528714409355351e-02  2.0187285537520323e-02  3.3669712516025780e-03  1.1701321523475563e+04  5.0815913346381903e-03  2.7381302787909090e+03  3.6618630903549371e-03  6.3302343462848200e-03  5.7730364168912850e-03  5.5202269725588803e-03  -3.4067707734758423e-02  7.5236977899997273e-03  3.6388574587078865e+03  1.0361758675651809e+03  3.9819875210876880e-03  4.3898747849927837e-03  9.4169535795019729e-03  9.7447281421610184e-03  5.1420026848555201e-03  5.2001235029803866e-03  4.7875080205115466e+02  8.3150427514853929e-03  3.4836794408046140e+05  1.4443815232303566e+06  8.4535828858668637e-03  3.0701227345367350e+00  4.3495548514097156e-03  4.4634756534628148e-03  2.5786546062876530e-03  1.9798015314466807e-03  1.5883196056813200e+04  1.9777888486853445e-03  2.0340296184127166e-03  4.7188848039514105e+03  1.0271465265985824e+04  1.0313540294728600e+04  2.8592211347881168e-03  2.9598786770816516e-03  2.5647520671786485e-03  1.7159023510466359e-02  1.0139194957572876e-02  1.0840422943059935e-02  2.2095486439915424e-03  1.2822226064337453e+03  6.7924023110775067e+02  1.2113557357904710e-02  4.6023950826377487e-03  7.3060298311932248e-03  6.9335972939934369e-03  6.4330397058227360e-03  4.2644477071205678e+04  4.9351219948970118e-03  -6.1753630085007736e-03  7.4531823668905738e+04  3.7816818702496972e-03  2.0489623890151735e-03  1.9901036627051130e-03  1.9589771606373994e-03  9.2530336497796649e-03  2.3323259451769394e+04  7.9345243330754427e+04  5.3721878308615459e-03  2.7621351822121700e-03  5.3444000878088028e-03  4.1237317795648279e-03  -5.3714161970920778e-02  -4.1631339728748245e+01  -2.8614447146290742e+00  2.8120596609564389e-03  8.1417519275690433e-03  2.5834158978641042e-03  8.0174002377461429e-01  -3.1735240667365862e+04  1.9836379108956357e-03  -7.8437921386677175e+01  -2.4201221142952938e+00  3.1832753939091715e-03  3.4400807841307381e-03  3.5359276565671929e-03  1.7630936302672120e+02  2.9635719299246697e+06  2.1158440352991011e+07  1.8385500953686774e-03  2.4686209342489156e-03  9.1089304808244231e-03  4.9406638407897717e-03  4.8595947697920219e-03  3.6583981762844590e-03  4.3120252447553459e-03  1.8410596487820575e-03  4.3683305999073123e-03  5.8855358309287406e-03  6.6590678841173349e+02  5.1578351492502211e-03  1.1252908854680128e+00  9.6253459885874242e-03  -1.1723879521799534e-01  4.8808526337849253e-03  1.3283847537166574e+06  -2.9622178856997322e+06  1.8426053363560021e-03  1.8622319956390033e-03  3.0349595813381931e+01  1.3552412737061375e+03  1.7945814153871194e-03  3.5476083452816902e-03  2.9315235223202076e-03  5.9584883165619430e-03  2.7357057729116758e-03  5.3948626694246158e-03  4.1171334257262427e-03  4.2499983585397367e+03  5.7461773643277081e+02  6.0768503620133767e-03  5.9143432826577025e+06  1.0111960053310812e-02  2.8781031901836218e-03  5.5152430848110848e-03  7.2588306184217218e-03  6.7563419822429614e-03  1.2330813285564899e+00  2.8029698763481596e-03  8.0148381673740780e-03  8.3035446551364550e-03  7.6410852143996002e-03  3.5929404002718241e-03  -9.5574213680985537e-02  -4.6802117119632600e-02  6.6448219112656458e-03  2.4424202437667875e+00  5.9679936416601640e+02  2.3903753379117942e-03  -3.4204923899415501e-01  6.5032908123569058e-03  9.1615607091727370e-03  2.5233057551737161e+03  -1.1683256670227318e+02  8.0452369196190778e-03  2.8024336734725720e-03  5.6893667011607115e-03  4.9648838554391967e-03  2.3110654501168472e-03  4.2431833973135382e-03  1.5135667027639915e-01  4.9470144668597211e+04  3.6510382727489455e-03  2.9852572081943076e-03  6.2011063819271631e-03  3.0519249487205771e-03  1.3190745280526781e-02  -1.2376894285903907e+03  4.4371213701249338e-03  1.8881902163208006e-03  6.7770355547471395e-03  6.5922527700491536e-03  6.8686082597487303e-03  2.7436604750355306e-03  2.6302029573202273e+05  1.3331132607313356e+05  4.3129918700319037e-03  7.4976877183976194e-03  -1.9906579552704498e+00  2.5265711712293140e+02  6.8259434253919648e-03  5.0250353955645357e-03  3.9380061886170178e-03  1.6039206735562010e-03  -2.1921478174862412e+02  -2.2872141549081590e+02  6.2456277049564422e+04  4.4108262884574026e-03  4.1768421213821813e-03  3.6716211639975117e-03  8.7763070393791168e-03  6.6224161645896057e-03  4.3954952187156454e+02  1.6138792114495845e+03  3.3532992216106518e-03  6.4731894180156428e-03  1.7720513463573516e+04  5.9331850958148722e-03  4.1418965076749116e-03  8.6166577981332329e-03  2.4239241326461936e-03  5.2817115874792822e+05  7.2794101444012107e-03  4.2258664550272138e-03  2.2446036218776010e-03  8.4889047051138061e-03  4.9245193371023404e-03  5.9015546608656867e-03  7.6946854524296490e-03  2.4806831353682288e-03  5.3143104178368719e-03  5.8241886939270473e+04  1.6585595775972864e-02  2.1092618915735683e-03  2.5567159534673730e-03  1.8095119546276658e+02  7.5214137713596682e-03  -4.0689456755810600e-02  6.9967118304865442e-03  -8.5611131056598442e+00  5.4551249019224807e-03  5.1725624150277686e-03  -1.7062777091395747e+05  3.0846103256383412e-03  3.1964230678130307e-03  -9.1647775493199915e+03  1.4156328692166121e+03  -1.7090923248637293e+00  5.1948057806067280e-03  -8.3209967446583419e-02  3.7493577253970875e-03  8.4560170504116173e-03  7.9875149513686655e-03  6.8729478261465391e-03  6.1502176810244551e-03  6.1526160630846552e-03  6.1145100955494538e-03  -3.7288904060262481e-03  6.0148097482801560e-03  9.7918398397723819e-03  3.3469700757970531e+02  3.2712521053976269e-03  2.7598875684579035e-03  2.3086136770844955e+03  6.0555018343459315e+00  7.6137281750013622e-02  8.5347104444424473e-03  7.1885583794622822e-03  9.0124209733420710e-02  7.7460903614804629e+03  -4.3129286783951102e+01  5.6346749569714943e-03  3.0732885671646720e-03  5.4260774855902196e-03  1.5795154688890544e-03  2.1818231677578530e-03  3.8307417293890855e-03  3.7795852435923926e-03  9.7670092331128166e+04  2.9732310856100896e-03  3.5503482380680514e-03  5.0469883764012484e-03  6.6609740408101158e-03  1.0087657785588877e-02  1.6209573520659453e-03  1.9191381845712241e-03  3.5425883744906787e+02  7.7792789789412672e-03  1.6302444428818417e+05  2.7722205544439174e+05  4.2592941707953781e-03  2.9281571637602387e-03  7.5693150363358077e-03  -3.8315343441959894e-02  7.5977510228781063e-03  -3.0809747694794560e+00  3.5639241290154680e-03  3.2199072183681803e+05  3.6475014084416340e+04  5.7590722654802778e+02  5.9083712862100322e+02  7.0566411036498064e-03  8.2766751337205249e-03  6.2194541195146492e-03  2.3073514178663665e-03  3.4779770699790297e+03  5.1540645292375721e+03  4.4474605529272208e-03  4.1935804566103881e-03  3.8512144874129129e-03  3.0482407454818629e+04  2.9203318116094910e-03  3.0703090799147309e-03  6.6468334580527680e-03  1.6047932743314347e-03  3.1353914573401150e-03  3.2319351757716030e-03  3.6175316695593509e-03  1.8300107070851925e-03  2.2734087383586340e-03  1.8761768214467427e-03  1.6313702579172163e-03  1.6546659851080355e+02  3.0450642398198243e-03  -7.5605950107681406e+02  8.3641000685098447e+01  4.9184364440130772e-03  3.4092838262780724e-03  2.6648208350901876e-03  4.7334256570958060e-03  1.8171372761753312e-03  2.3779770720886817e-03  6.1072775633154840e-03  5.8322045648686030e-03  2.3054443928097568e-03  6.2446482520347881e+03  -1.1755302459468396e+01  7.8695023740539931e-03  3.6537836500347017e-03  8.0054868896113385e+02  2.5271341965411647e-03  1.0545605931637721e-02  1.2298696301830631e-02  9.7022393973413626e-03  -1.8807122951465433e-01  1.9016739407132833e-03  4.4421809360572573e-03  2.0220582373071040e+04  1.8831663597547992e-03  2.4017536044051376e+03  5.4512133281523776e-03  4.6766884231632224e-03  -6.4443560728627098e-03  1.7994892023741125e-03  5.4863007994051631e-03  3.3857794395854052e-03  1.8434148205486093e-03  -2.0727561994088546e+01  -2.4664225154627256e+03  5.8420182033072730e-03  2.4520652121453241e-03  1.8575683054778628e-03  2.9019074679605029e+02  4.5826098621425445e-03  9.2889693566571563e-03  5.1971594574640820e-03  1.5546288569028410e-03  6.3409337126701720e-03  -2.8855742387409265e+01  2.8246306887163666e+00  4.8806726980293964e-03  7.0083442969961716e+03  6.4404819812712913e-03  7.1895843886191271e-03  2.4683007225131124e-03  3.9724809318801048e-03  1.0464856374509762e-02  1.8711255584984978e+06  8.8719147181669442e-03  9.0830732587390099e-03  8.8278497903889128e-03  9.4720217145000847e-03  9.4562450011008888e-03  1.8623043151218708e-03  1.5788303301932068e-03  6.3548842934159789e-03  2.4074891417499095e-02  6.1059208686306803e-03  3.7456907250159705e+05  1.9457672899129100e-02  4.3194911173014211e-03  2.2436724661688118e-03  7.4833705531433996e-03  2.6971679990340758e-03  2.5164920751396449e-03  2.3470195750505771e-03  7.1819493300658722e-03  3.0396110977238748e-03  7.2017312662940427e-03  3.2337341954120349e-03  5.6659532264466865e-03  9.8897846348789642e+00  1.8567452849325727e+02  1.1948087347936351e-02  1.2163852224039658e-02  3.1096549952632289e-03  6.2244601954926015e-03  2.2159941562860026e-03  1.2191126886942311e-02  1.9829736598193096e+04  1.8628726387568025e-03  8.7208102971271725e-03  8.5911051583493579e-03  4.7326563990609709e-03  3.2708881592022677e-03  -3.7408405807654299e+00  7.2540226584239947e-03  2.6451847284276260e-03  1.0443892191463730e-02  2.6717613967959788e-03  3.3707947098965772e-03  7.6143798582081618e-03  2.9061158643849914e-03  1.3067784336598050e-02  6.9723089560622664e+05  3.9740549716968485e+03  8.8641578653208599e+03  -2.6182647559874912e+00  3.4868900402779492e-03  4.6191517481135305e-03  5.1249931956127972e-03  7.5452292962890615e-03  5.5079886968425803e-03  3.6496045080507936e-03  2.1293023793529215e-03  1.8288856301484988e-03  1.3435577820241131e+04  1.7265865331179231e+07  7.2708089880797742e+00  1.8248992061074573e-03  6.8589001178764909e-03  2.2709544385883960e-03  2.2483195836423761e+02  2.5775489191316439e-03  1.2844504687693880e+03  5.8917648248546720e+02  3.6904316911232520e+01  1.4097946176381430e+06  2.8639762292900366e+02  1.5557440039080798e-03  4.3302912233134103e-03  4.9429941332438171e-03  1.5794234742168339e-03  1.5696363441114218e-03  1.5586716298634981e-03  3.1643100702046655e+05  4.8756565813689701e+07  2.6028333889850542e+07  1.2011586745560845e+02  -4.7630546655932847e+02  8.1360645390805217e-03  3.7009270592358308e-03  6.7324169886595060e+04  4.8802620490855344e+02  1.1039835135108103e-02  5.2174600799586433e+03  1.6404952538257062e-03  9.4224739577835146e-03  5.5849907204724263e-03  -1.4977911169343605e-02  2.0280783446446833e+00  2.3872903673697143e-03  1.5395752114695446e-03  1.5210522794778731e-03  1.7596969046797437e-03  6.3114804096533721e+06  3.5761569007301333e+00  -1.9130151425839450e+00  1.5580073717574425e-03  1.5614495092438766e-03  1.6273426004471520e-03  3.8901450337969897e-03  1.1313750438103916e+01  -1.2782049531428913e-02  4.7077634005892111e+02  5.6207635943115990e-03  8.2727020357716015e+01  9.1380396827110133e-03  9.8958210000988246e-03  9.4031260861876121e-03  2.4811475615941561e-03  9.9161222591151576e-03  8.0963817966703561e-03  -6.9407759495362473e+00  3.0865152063339781e+04  -9.5731937520091265e-02  7.2481718372925637e-03  1.7474461595516614e+03  5.0543098312264662e+06  2.9987582280388344e+06  1.3497879228969195e+06  8.2721649808151806e+06  2.1504511022938143e+01  -3.2324320044691379e-01  2.4418584150546702e-03  4.9665297454027490e-03  6.7977282804143428e+01  2.7728235431754480e-03  8.7126356509054804e-03  1.8565491008302301e-03  2.8368536287999908e+06  9.9520850102569497e+01  7.3358531731206019e-03  -8.4074993715350725e+00  5.8296795203565148e-03  2.3689266470890984e+03  5.7120562414036376e-03  2.9853533953956291e-03  3.3775255544214134e-03  3.8187462261798943e-03  2.3098425409569250e-03  -8.3797585390815495e-03  2.8598546153032070e-03  2.6316865802401761e-03  5.3027411543089986e-01  4.7468014673174817e-03  8.1160761275490979e-03  4.5336027634739892e-03  8.9625686819746302e-03  2.4761085964884544e-03  4.3044317259713949e+04  1.5580339598185950e+04  4.1613513125750316e-03  3.7585250335795571e-03  3.6346161167343429e-03  3.2172542315415833e-03  3.2719082841211121e-03  6.1368199473577306e+03  1.1756136531835509e+07  8.6379856065167279e-02  1.7512183861715056e+05  6.3107643614930811e-03  1.1012734887466358e+05  8.1690718748565778e+04  1.1095284303856574e+00  5.5536352816739432e-03  4.1928799952869059e-03  4.0345101883774766e-03  1.7866104416917777e+04  -8.1167937734049378e-01  1.1106876979721470e+06  3.3739148487551144e+05  3.7616217430694797e+05  6.9954855621138616e-03  2.8312731947246319e-03  3.3314770762666137e+02  7.2222528645494222e+01  3.9233816902783142e+03  7.5202988564978359e+03  2.9210808058487655e+03  1.7101259030416029e-03  5.1904250369823896e-03  5.6948302383412449e-03  2.5068259012584189e-03  1.9266460929617437e-03  2.7348690237004093e-03  -2.6636149708774326e-01  -1.5557416801084972e+01  6.7371597936332226e+04  5.0467941394920510e-03  3.4894127564831620e-03  8.2277812995064665e-03  6.1975817279627402e-03  3.2830322970122663e-03  -5.3257925704923874e-02  3.9135603787702807e-03  3.2127663659182282e-03  3.4844444489833290e-03  1.8418435827241904e-03  3.0360512653104244e-03  7.9460446898320288e+02  5.0069096540960745e+03  5.8324430001211814e-03  5.9637220823169157e-03  -7.2373202890329560e+02  4.5628026395627217e-03  4.2166266166369856e-03  2.8628660636977525e+04  2.2857884772679114e-03  6.7823503838219138e-03  5.7398395677101706e-03  -2.5963613215254912e+02  1.9929071260587918e+02  2.1299418904501567e+03  5.0171750363091854e+02  3.6535446228736970e-03  5.7580579208779670e+02  3.6076696767574599e-03  2.3282096518982723e-03  2.8041629263260638e-03  1.1201023135111629e+04  5.2527384789968724e-03  2.3301947587364364e-03  3.1756297996109236e-03  4.7116209490791847e-03  2.1576555400612597e+03  4.5704435