<?xml version="1.0"?>
<VTKFile type="UnstructuredGrid"  version="0.1"  >
<UnstructuredGrid>
<Piece  NumberOfPoints="6486" NumberOfCells="12696">
<Points>
<DataArray  type="Float64"  NumberOfComponents="3"  format="ascii">0 5 0  0 0 0  5 0 0  5 5 0  2.5 0 0  5 2.5 0  2.5 5 0  0 2.5 0  2.5 2.5 0  0 1.25 0  1.25 0 0  1.25 5 0  0 3.75 0  5 1.25 0  3.75 0 0  5 3.75 0  3.75 5 0  3.541666666666667 1.458333333333333 0  1.458333333333333 3.541666666666667 0  1.875 1.25 0  3.75 3.125 0  1.284722222222222 2.326388888888889 0  2.683189655172414 3.767959770114943 0  0.9375 0.9375 0  4.0625 4.0625 0  0.7252209595959597 3.026357323232324 0  2.763480392156863 0.9129901960784315 0  1.875 4.345238095238095 0  4.345238095238095 1.875 0  4.192708333333333 0.8072916666666664 0  0.8072916666666665 4.192708333333334 0  3.368055555555555 2.326388888888889 0  0.6837606837606839 1.738782051282051 0  3.285485245626782 4.324328415208927 0  2.551239698778062 1.693130150610969 0  1.827256944444444 2.868923611111111 0  3.464875022477093 0.6813924607921316 0  1.942880513719175 2.059558626187995 0  3.04563492063492 2.971230158730159 0  4.375 3.4375 0  2.13639445139758 0.5994472256987903 0  4.272228422619047 2.606956845238095 0  0.625 0 0  0 0.625 0  5 4.375 0  4.375 5 0  0.6400043240752655 2.384646170113389 0  1.347691225855598 1.660875475110776 0  3.515783617857982 3.723905460714006 0  3.125 0 0  1.875 0 0  0.625 5 0  4.375 0 0  5 1.875 0  0 1.875 0  0 3.125 0  1.875 5 0  5 0.625 0  0 4.375 0  3.125 5 0  5 3.125 0  1.489644181965304 0.6007147273217681 0  2.054597701149425 3.742302955665024 0  2.662520990197781 4.39452575763237 0  2.415835363784578 3.165530021913244 0  0.8679986894865213 3.602373689486522 0  1.267459753787878 2.886186079545454 0  4.099702380952381 1.365327380952381 0  1.316964285714286 4.438244047619047 0  3.7915135293491 1.959691594758709 0  2.875141124191255 2.118761176511833 0  3.00418010501169 1.397414179299248 0  0.4081721322167092 3.410647930198662 0  0.4166666666666666 0.9375 0  1.014190407998288 0.4422301359994293 0  1.383260571305984 1.162718286082048 0  4.53125 3.90625 0  4.453125 4.453125 0  3.772848162504192 4.48678272083473 0  2.8125 0.404329517041716 0  0.4538690476190476 0.4538690476190476 0  2.305461739347387 1.04517007574828 0  3.771263799175824 2.624190260297553 0  3.229617768018734 1.809956994202883 0  3.780190884441317 1.025307111692601 0  4.646337365591398 0.9375 0  4.537623451379149 0.4609485750426037 0  1.200477888421151 3.934852888421152 0  0.3536626344086022 4.0625 0  0.4623765486208503 4.539051424957397 0  4.0625 0.353662634408602 0  4.560525106689535 1.390989100915847 0  3.958439078571988 3.619844539285994 0  4.672619047619047 2.1875 0  2.1875 4.672619047619047 0  1.862808494877602 3.325947624431087 0  0.3268135998175443 2.8125 0  4.674181280189791 2.8125 0  2.283233994935276 4.138623547175983 0  0.9375 4.677879119362977 0  3.08488061581743 3.469889594488945 0  3.113427375573758 3.913955730709506 0  1.652847799068813 3.950848935641292 0  2.932652662909449 2.550542739521724 0  3.311350648514189 1.088831994878698 0  0.6770833333333333 1.295851139601139 0  0 1.5625 0  1.047214787840024 1.96818092308125 0  4.183331482095785 3.03958703580843 0  3.4375 5 0  1.071307777252521 3.246275861010018 0  0 2.1875 0  0.386576856303419 2.03125 0  1.713862716483534 2.439783116849799 0  1.775396256975935 1.665976816304977 0  2.231236976948428 1.443917394671254 0  2.373900732409897 2.086930260150635 0  4.114918237574474 2.221646174618671 0  3.661302567757379 4.099620139144836 0  3.378215938602977 2.734494874063393 0  0.9842097536079312 2.597286741306247 0  1.642795138888889 4.672619047619047 0  4.0625 5 0  2.099458800960004 2.567446522665629 0  2.616202751603346 1.297895893940078 0  5 4.6875 0  0.9937554350075428 1.512592975947215 0  2.8125 5 0  3.002695327068194 4.614055254615477 0  3.205627424097207 0.3852436382721472 0  1.678616581261621 0.927556612265266 0  3.365326698305438 3.196943731162083 0  1.554834936170314 3.120009882655813 0  3.108408340729323 0.7797187795784133 0  3.684368918102174 0.3728877601163941 0  2.716214835303553 3.39276351922003 0  2.37718583984784 3.551973401560441 0  0.3750662445374837 1.52191994866787 0  2.679073487930202 2.844160731602957 0  1.557635869750078 1.991068682985722 0  1.812595698561088 0.3839273018252746 0  2.512014721281916 0.6320641118792227 0  2.1875 0 0  2.349973454443689 0.3189980586887866 0  4.6875 3.59375 0  4.636052949022233 3.178355898044465 0  4.6875 5 0  3.345485909784306 4.665765449101383 0  0.536727472389443 3.749603193819277 0  4.349541499640203 1.116201826262156 0  2.886559045931982 1.774013674579691 0  0.6770833333333334 0.7142857142857143 0  1.5625 0 0  4.120842096538671 4.628726497527622 0  2.176157474177018 1.793470423744689 0  2.175650736889416 2.909863021769539 0  4.036616464259081 1.709699085170981 0  3.887974623473683 0.6492597046022868 0  3.4375 0 0  3.70675699592552 2.289666624772415 0  4.697265625 4.208984375 0  2.815177577303495 4.085937578239174 0  4.672619047619047 1.730733296184288 0  4.6875 0 0  5 0.3125 0  0.3125 5 0  0 4.6875 0  0.3276089296588581 2.484526834811734 0  0.712433309515852 2.065138854645612 0  0.6376435912223634 2.711473454001295 0  1.184991292170422 0.7222504400947201 0  1.31884329779317 0.3206944232264773 0  3.683609198994263 3.44428698533042 0  0.3125 0 0  0 0.3125 0  4.231797269642997 3.789141808928991 0  1.564375596050781 1.425998687184973 0  2.007640894175573 0.9032106925568466 0  0.955125897558294 2.276666098587227 0  1.43898735721003 2.611310720271951 0  1.954491523717513 4.040700257877075 0  1.752947649777421 3.652439445419346 0  2.509575750247638 4.678021307664052 0  4.687194709705067 2.499965519538002 0  1.5625 5 0  0.9375 5 0  5 2.8125 0  2.1875 5 0  5 1.5625 0  5 2.1875 0  4.0625 0 0  5 0.9375 0  2.8125 0 0  0.9375 0 0  0 0.9375 0  0 2.8125 0  0 3.4375 0  0 4.0625 0  5 3.4375 0  5 4.0625 0  4.010848109290813 3.306446973933037 0  0.3077461147713075 3.119700563473354 0  4.6796875 4.6796875 0  2.333079012424948 3.845757959077508 0  0.7829771267899832 3.317744656243421 0  1.159100632608513 3.532487125138763 0  0.799066251840424 3.893573750162776 0  1.57326499580282 4.255438189102632 0  0.7309366047093668 0.2991402264438908 0  0.3054777494262156 1.223275888123843 0  4.027475154280377 2.78211326942427 0  2.35270874745988 4.426658168476266 0  3.474236283732569 2.021154281686229 0  4.401414236174444 2.329446628171927 0  3.39403781747337 3.987097102903034 0  1.077524329801934 1.214100792470484 0  4.065611571711903 1.066085524514197 0  2.165399002716117 3.335637450367864 0  3.007639563081306 1.093684039371638 0  4.030818285732145 4.351883315180857 0  3.504115222530889 1.739284194222036 0  1.224503368215566 4.712091441401919 0  3.805634204685714 1.321528442399996 0  4.319233123479386 1.573547993867769 0  1.024007670021325 4.394604704797005 0  3.776400432023095 3.839003324979723 0  2.991819819453308 4.320567175146181 0  0.9782797534072181 2.886406017887129 0  1.763835134082104 0.6602345487826022 0  3.765182288741625 1.631193038541544 0  2.267959593989681 2.345053543725764 0  4.412434895833333 4.168294270833333 0  4.4072265625 4.7255859375 0  2.791493971314009 3.11210833271929 0  3.408766223032414 3.469500900677365 0  1.915147569444444 4.725484476461039 0  2.070301968506271 0.2605666686358055 0  2.767932250651506 1.530295992695836 0  3.280065043173439 1.364863281105779 0  4.45101570110842 2.974157152713635 0  3.521928862999512 2.96990445010402 0  2.552921961347576 4.008414007169315 0  0.2682955376854191 3.657555015841003 0  3.084522868361304 2.310593316718068 0  2.669255823227708 1.939379494498064 0  2.615884629473921 2.238841231570381 0  1.405652091971449 0.8877813821442277 0  3.25151486618811 3.68536115104276 0  1.963741569810629 2.331207252264507 0  4.017297980292599 2.486269171379106 0  3.869168920841219 4.748188103831625 0  3.596868753579134 4.77342723825056 0  2.41262958240343 2.764128584995838 0  1.266750578673391 1.404747710001619 0  1.559243962241121 2.85146506328516 0  3.128799423834764 2.052081657715259 0  0.6770833333333333 0.9778025793650794 0  0.2083333333333333 0.78125 0  1.978224492765132 3.087074731032578 0  4.051448850909273 1.969392119104174 0  1.320577095006813 4.172234780971559 0  3.214261103850064 2.534397293281829 0  0.2635729089754111 1.779234736680035 0  3.510775680035133 4.460728640112889 0  2.603081405968802 0.2432579385496493 0  2.866341315154884 0.6662105505481998 0  3.000919221100777 0.2270278495648781 0  1.298858304121393 2.05917319923859 0  2.020292299736597 1.589794568392338 0  0.7401688396476035 4.470780315741533 0  0.6721783535561408 4.733125588707921 0  3.753712482075402 2.874301339727514 0  3.557348205914658 2.491958694539413 0  1.094565978195436 0.2011034254079851 0  0.9338148378011396 0.6833568465908735 0  2.945530578578538 3.701798332963805 0  3.111707186654356 3.216904195825605 0  1.341791111822685 3.293123262233967 0  1.632939924064587 1.184895891095613 0  0.6335477978936732 3.517393619499591 0  0.5576014611130192 3.210998966942492 0  1.564344196470102 0.3630498725895039 0  2.75362450242839 4.626680495816594 0  3.571304405229554 1.192452351107437 0  3.522934592621944 0.9359134489437148 0  4.453125 3.671875 0  4.765625 3.828125 0  1.055906321410838 4.14310472322957 0  4.795146539102229 0.46875 0  4.767156345199235 0.7178596932040019 0  0.2048534608977711 4.53125 0  0.232843654800765 4.282140306795998 0  0.5393715189906129 4.270810883024032 0  4.329922600274667 0.2750645887059072 0  4.275515096738972 0.5448389557295173 0  4.477747423652795 0.7252838358993123 0  0.2002829820452772 0.46875 0  0.4352678571428572 0.6956845238095237 0  0.5007241582667088 0.2123388122114133 0  4.672890923830735 0.2500902110494848 0  0.4308009280819452 4.783624996516437 0  2.104871305393774 4.438653689007242 0  0.2274454167838428 0.2274454167838428 0  3.446466574593436 0.4359605369011901 0  2.12354112127588 1.217588426759619 0  2.309175236825235 0.7888355970690434 0  2.556178570281936 1.054299163237582 0  0.578683248637
[...]
<PointData  Scalars="f_10845-3"> 
<DataArray  type="Float64"  Name="f_10845-3"  format="ascii">7.4875163859489762e+00  1.0188853258975287e-02  5.8799724695401674e-04  4.5451189298817050e-04  5.0035316627343599e-03  4.9882246557926384e-04  9.4701066652633270e-01  5.5620299246519571e+05  4.9135333813140917e-03  -7.1734895824573075e-01  7.5438684389736851e-03  2.6344259148855458e+00  1.6500494965964895e+03  5.4506857931164369e-04  2.5040791676085267e-03  4.6158343058947418e-04  1.4124806576833752e-03  2.8577191417175326e-03  7.0175344383784747e+01  6.2629545995666483e-03  2.4586463443298364e-03  3.5834925087163583e-03  3.5482179166610858e-03  8.1175222098611183e-03  1.7896550882522922e-03  9.5805375730559099e+03  4.4350186841019216e-03  2.4412115715743294e+01  1.3800593313232040e-03  1.6488105788278170e-03  1.7534255783957815e+02  3.2253192151854865e-03  -1.9061035395799800e-02  2.4815281541395559e-03  4.8798444150230909e-03  5.3290755215340971e-03  3.0327421265408617e-03  6.0128969816198368e-03  3.8252077612429590e-03  1.2993500096425265e-03  5.7283780591057534e-03  1.4809695820838216e-03  8.8201616746279594e-03  1.0057411647548963e-02  4.4510453393586561e-04  1.2232753071201323e-03  -6.9980741269547977e+01  7.2095236309913527e-03  2.8213931583857773e-03  3.7075128780849880e-03  6.2439090030535884e-03  4.8173340984560387e+00  1.3839945971123317e-03  5.1177220384878797e-04  -2.0102243179668915e+03  3.2992718709258996e+04  2.2400144404196705e+00  5.6724087896998696e-04  1.2370698955943152e+02  8.2556178332804011e-03  4.7326721740171618e-04  7.0472576321422365e-03  -7.4822281208034953e-03  9.8768235116921104e-03  4.7062592855460668e-03  2.2422340837427678e+03  -3.8502126798391750e-01  1.8090625460177410e-03  3.9936262075499670e+01  2.3782103579045480e-03  4.2209760888685553e-03  3.9580523682386168e-03  7.1665425582518847e+03  9.1153656380508312e-03  8.0230333564422999e-03  7.2736176015726888e-03  1.0446139914478977e-03  1.1163804838599262e-03  2.0906527284192465e-03  4.3534652214667719e-03  9.1523244224986384e-03  5.3886329369121737e-03  2.4260478319721155e-03  3.5084913106751508e-03  2.4139762068788088e-03  9.5930250124666785e-04  1.1291432701117353e-03  3.9661885682345905e+02  3.3271446820582230e+02  3.1432386954697293e+01  1.9069401507454708e-03  1.0455929585745604e-03  2.0370425546782879e-03  8.7929569756378797e-04  4.5729335608378818e+00  3.0048350262603793e-03  9.8687768360055910e+04  8.4958394183726660e-04  1.8607721372251795e-01  1.4000541396530647e+01  3.6422646616092280e-03  3.2094268650381640e-03  7.7276222244932015e+01  4.1034550896394710e-03  3.3215200616364573e-03  8.4521204614966452e-03  -4.3346892846985597e+01  1.2847864730083825e-02  1.6460571000151939e-03  1.4520041237149526e-03  8.5237642533043618e+02  7.6279957053271319e+03  7.5111926546233008e+01  5.9767667049971237e-03  6.4393207408753950e-03  5.5327071971388742e-03  5.2473805728456783e-03  1.7558120219805275e-03  2.4805749794587495e-03  3.2029867739507075e-03  -2.5635850445284807e+00  1.0948883431648163e+01  1.3861198549517237e-03  5.6509231666563688e-03  4.7590310042645760e-03  4.2956574745987267e-04  8.0174666927230760e-03  1.5043669477588889e-01  2.0467074121051322e-03  3.5548162364429478e-03  6.6625110678872005e-03  3.2040485633023259e-03  -5.1994792770377649e-02  3.7444739564953295e-03  2.5913254235154139e-03  4.1887457764080592e-03  3.9363624861144565e-03  7.5653745637310277e-01  4.5154846189622991e-03  6.7678806996421337e-03  6.3897133698140839e-03  4.9456811955305748e-03  5.6058395552058462e-03  5.2693624669399846e-03  8.2192312122541318e-04  8.9839453888160400e-04  8.4476623158380297e-04  1.8986471628977060e-03  1.3460989335921727e+03  1.3750287248810674e-03  4.2092979620825038e-03  8.6247325675614279e-03  6.9096396287565420e-03  1.6428913282216340e-03  5.6556918237098824e-03  5.2182731388082894e-03  1.9086448384621490e-03  2.1973866317566227e-03  3.0928457926494794e-03  2.5481568619578074e-03  7.8595184187159426e-04  2.9299745892211039e-03  8.8641673863329787e-04  9.3690706569487441e-04  5.8070536248521702e-04  6.4544625541364500e+00  2.8449813586133288e+01  2.7716160034580421e+03  -2.1341312556692740e-01  2.6013835227042097e+02  7.6770076939831587e-03  7.3969741530944275e-03  2.5688995977499519e-03  9.4675765948932285e-03  9.6653843557268256e-03  1.5320003515383888e-03  6.8823491845426349e-03  5.9916730751583347e-03  6.2762007847262424e-01  -1.2885405742847293e-02  6.8873708704869365e+00  1.8928523911043980e+00  6.7468252114348115e-01  8.4142037523203279e-04  2.7528037330840203e+00  3.1486910141091062e+00  4.8475954665622801e-04  1.7524453717696162e+00  5.2462600740030567e-04  5.0580771704028548e-04  1.9164192832427645e-03  5.6093135048233887e-04  4.3528733622242776e-03  8.1745600718854151e-03  4.7784201911951506e-02  1.4295583474992626e+05  7.4888006602607720e+03  3.4198020670390889e+02  4.6882793063399977e-04  4.5188765810665944e-04  1.9538156697856651e-03  2.8684099083186189e+04  7.9517803192077137e-04  6.3985444793711494e-06  7.3681899379604265e+03  1.1166720953987412e+03  6.4280512024891107e+02  7.0611040788909634e+01  8.6012192987082597e-03  -1.9755612451562498e-02  1.9299993442879484e-03  9.0164182850290087e-01  3.0125538807061216e-03  1.2595453203903845e-03  2.9102951712930408e-03  7.7452051774798752e-03  1.8697410880731010e-03  4.2382979858761362e-03  3.9381135639418819e-03  1.8253681838864807e-03  2.9421182598312967e-03  1.2423734310368635e+01  2.3618443893625995e-03  1.4244871935290772e-03  5.9819586565454038e+01  2.3276690709296728e-03  2.4613192206481387e-03  -3.8781871290474307e+01  6.4900153085734056e-03  2.4175648279224546e-03  5.3636838680924271e-03  1.2006951610155693e-03  1.2174566785693789e-03  4.2610302847120064e-03  3.0633725323824697e-03  6.9876083540897218e+00  5.8546059055837232e-03  4.4436441663151119e-03  3.3881189278903768e-03  1.1802495553398856e-03  2.9106228902263014e-03  2.8132478542401964e-03  2.3377824404798607e+03  3.7966914614570380e-03  4.6405052665384888e-03  4.7565485281045221e-03  7.2221788153885476e-03  3.2930409334392965e-03  5.9468140278236539e-03  1.9458934658048096e-03  1.7418688648379755e-03  1.7387718315079012e-03  5.0286340940515414e-03  7.3679543978933774e-03  2.9297387402638431e-02  3.7114261085573696e-03  8.5967214943065105e-03  8.9176794202297689e-03  5.0568633801026594e-03  1.8758493264594311e-03  1.3048756869870957e+02  3.5329771807577405e-03  3.0541164424470814e+01  2.2297961517712102e-03  4.7778901427021937e-03  4.2219994374145470e-03  3.9702236430714547e-03  6.5177850860017759e-03  5.9703942459532026e-03  4.0580149788135998e+01  1.1556434392183538e+01  2.4509733898027989e-03  2.8495712623589739e-03  7.8553606920088101e-03  8.1995052503824103e-03  3.6139449709208173e-03  3.6513545811289391e-03  5.3431179185810516e+00  6.7608541393823747e-03  3.8847567606474227e+03  1.6106725254305795e+04  6.8991707194837899e-03  3.6188459424832481e-02  2.8140053820793526e-03  2.9253417197352802e-03  1.1661415196691119e-03  7.1556011118470962e-04  1.7712093133743545e+02  7.8552964630992234e-04  8.1923206432214628e-04  5.2623884323355426e+01  1.1454256586979064e+02  1.1501183575348962e+02  1.4531095244215381e-03  1.5331182932576532e-03  1.2070107865667541e-03  9.5929901179072456e-03  9.0196641047106969e-03  9.0801687013825263e-03  9.4917620361956428e-04  1.4300240874964263e+01  7.5766753891118865e+00  9.6384008879167073e-03  3.0621984903402531e-03  5.7527207905511864e-03  5.3805038076630519e-03  4.8803948703067881e-03  4.7554411560855971e+02  3.3869443062831002e-03  6.4186715167058143e-03  8.3112940046440372e+02  2.2744195184592818e-03  8.1808397496922769e-04  7.7157264450235295e-04  6.8976000543049837e-04  7.7011103309062275e-03  2.6008792433866483e+02  8.8480542752913686e+02  3.8224289694366816e-03  1.3259789466857986e-03  3.7939691131667081e-03  2.5955137197662052e-03  6.9318275238722856e-03  -4.5993287553775375e-01  -2.7959277335637845e-02  1.3955634055941965e-03  6.5878005310148193e-03  1.1971551220680780e-03  1.1547540387536682e-02  -3.5388246744401982e+02  7.5870144161778246e-04  -8.6645779032444603e-01  -2.1071554397855529e-02  1.6930365490268272e-03  1.9282619424421752e-03  2.0395125860744674e-03  1.9677133088216043e+00  3.3047662289986511e+04  2.3594396058660198e+05  6.4308538331434050e-04  1.0963686206755100e-03  6.4464942527682166e-03  3.3954797932793635e-03  3.3138541310883179e-03  2.1814031876862122e-03  2.7794394112346278e-03  6.3819092849563537e-04  2.8547702869665525e-03  4.3335430731512590e-03  7.4274314075093022e+00  5.7845442670070761e-03  2.0547001759629192e-02  8.2410569489960398e-03  7.4367488411775035e-03  3.3360131411855560e-03  1.4813211216204449e+04  -3.3032551436823334e+04  6.5206652592882846e-04  6.7143066724557182e-04  3.4005700757731294e-01  1.5114487000449591e+01  6.1723308556667269e-04  2.0343475763210596e-03  1.4763700238749906e-03  4.4066679619444143e-03  1.4421171228233721e-03  3.8456275774254702e-03  2.6271636585749403e-03  4.7395770422420483e+01  6.4110553362892899e+00  4.5244716860608682e-03  6.5952576313288548e+04  8.5043763844219605e-03  1.4344063701455063e-03  3.9688728043823151e-03  5.6647313840419850e-03  5.2032895152846030e-03  1.5377983734522602e-02  7.2868332033555697e-03  6.4627513451712294e-03  6.7970956815851507e-03  6.0903881365034713e-03  2.0886646033852129e-03  4.6318202719637025e-03  3.3930327790434099e-03  4.8283317640759691e-03  3.0406743066748614e-02  6.6577123451725519e+00  1.0504137397208172e-03  1.0478440928762972e-03  4.9505650334333504e-03  7.6040107714582346e-03  2.8140343892893295e+01  -1.2954615148248456e+00  6.4252977289035998e-03  1.3487240127072035e-03  4.1377362671896735e-03  3.4190337133200360e-03  9.6110989838191815e-04  5.4899914624403157e-03  1.0694100680161953e-02  5.5166312407952819e+02  2.1382285234071061e-03  1.5342547516863242e-03  4.6371974899179951e-03  1.5874120824438810e-03  1.9030328439176136e-03  -1.3797025806577349e+01  7.6025496201404044e-03  7.3871076822240155e-04  5.2240268926217167e-03  5.0393920350410015e-03  5.3154995387318868e-03  1.3451971102349926e-03  2.9330203606630862e+03  1.4865983974586045e+03  2.7737797640078007e-03  8.1125279249500814e-03  -1.5550377614974098e-02  2.8188209347038482e+00  5.2693154405134184e-03  3.3098194806707487e-03  2.4055267506739582e-03  2.2222268575712171e-03  -2.4389624960725769e+00  -2.5444084939156291e+00  6.9647176613769921e+02  2.8679883690454861e-03  2.6534512600089504e-03  2.1621675353824211e-03  7.2202853285586186e-03  4.9942044655746217e-03  4.9031605089984707e+00  1.7998836451291933e+01  1.8759740783163838e-03  4.9205728830913160e-03  1.9760965426885286e+02  4.3816519778333840e-03  2.8514710478208436e-03  7.0616137001751900e-03  1.0877693546692622e-03  5.8897950710710338e+03  5.7275866931652472e-03  2.6948145677077638e-03  9.8907772285032939e-04  7.0464767690770775e-03  3.3779304989069426e-03  4.3498651808811239e-03  6.1411693896473128e-03  1.1552440485244947e-03  4.3531242543102021e-03  6.4947897764060826e+02  2.3815056433600158e-03  8.0060880251143053e-04  1.1825603711853611e-03  2.0192262610626099e+00  5.9680136516132940e-03  7.5979707077372732e-03  5.3730915984148159e-03  -8.7625596335389341e-02  3.9057408759461659e-03  3.6243082848006008e-03  -1.9027142443429618e+03  1.6466824849476129e-03  1.7433872888886165e-03  -1.0219357938913400e+02  1.5788222995737803e+01  -1.1898685490609077e-02  3.6467603425683242e-03  7.4361774166956064e-03  2.2413759501485322e-03  6.9018070637075603e-03  6.4338437803757960e-03  5.3198887511754448e-03  4.5980449868759793e-03  4.6005342205088975e-03  3.9336342333248613e-03  3.5039834629038949e-03  4.4735415538453864e-03  8.2157331472552438e-03  3.7337211440525406e+00  1.8742931976141576e-03  1.3744141025879334e-03  2.5746097149471204e+01  7.3759595229594119e-02  2.2519817967786939e-03  6.9797926680983113e-03  5.6353032772956911e-03  7.1779502224373452e-03  8.6381432404057207e+01  -4.7595253073114951e-01  4.0840560988666110e-03  1.5957653061822140e-03  3.8758926994767267e-03  5.1568749946280567e-04  8.7455022730704925e-04  2.3072622644735160e-03  2.3201341172458655e-03  1.0891511345651290e+03  1.5025116693340018e-03  2.0501975339784302e-03  3.4989153014256158e-03  5.1082392256492195e-03  8.4975808141225673e-03  5.5315343530487073e-04  7.3705973020195693e-04  3.9520783845633360e+00  6.2256868998108025e-03  1.8179368942695276e+03  3.0913880176021694e+03  2.7235650753357561e-03  1.6102815736269568e-03  6.0158761687047818e-03  2.2324200860566450e-03  6.0443205235699779e-03  -2.7534214353239845e-02  2.0549839344811919e-03  3.5906164870174121e+03  4.0674663059153721e+02  6.4236931109934403e+00  6.5902148236784139e+00  5.5034807160610098e-03  6.7226584574925944e-03  4.6668730593921997e-03  9.9394707902661231e-04  3.8786220658732837e+01  5.7477955608946161e+01  2.9068270813632831e-03  2.6590726944570281e-03  2.3223001394325612e-03  3.3992113430176039e+02  1.4565130233554517e-03  1.6175727702702539e-03  5.0940489693059180e-03  5.3667416902072689e-04  1.6686767296611694e-03  1.7577366293795784e-03  2.1092579600055315e-03  6.2215956810379898e-04  9.2566732380208684e-04  6.5607653074093786e-04  5.7835075744490892e-04  1.8476706506666629e+00  1.5980483371460727e-03  -8.4244149693977928e+00  9.3926462233843988e-01  3.3717129927323874e-03  2.1805870365273132e-03  1.6621820648194609e-03  3.1881109489935201e-03  6.0005249745403728e-04  9.9701450789840959e-04  4.5550305093780543e-03  4.2805393758965490e-03  1.0126535708483010e-03  6.9638213231573189e+01  -1.2702411057813442e-01  6.3159220347950738e-03  2.1323029935712799e-03  8.9291578194719232e+00  1.1850085334748437e-03  8.8789348726453724e-03  8.8345341751287706e-03  8.3691772523643241e-03  1.5047840742076540e-03  7.4093081375867296e-04  2.8993395918838270e-03  2.2549321980542564e+02  7.0532153799761463e-04  2.6784655134763380e+01  3.9015604034303925e-03  3.1342949439786762e-03  2.4985062814679403e-03  5.8914901433081775e-04  3.9364859641237860e-03  2.0045334014690401e-03  6.2047322905309081e-04  -2.2341600493963124e-01  -2.7498822824757283e+01  4.2659068918920991e-03  1.0869113143189867e-03  6.7964807630170089e-04  3.2399418859386908e+00  3.0522934030804837e-03  7.7303394998644286e-03  3.6485152131327308e-03  4.5611685445233588e-04  4.7876341833590665e-03  -3.1472697310244802e-01  3.7075321311649687e-02  3.3375460015536863e-03  7.8158013568239170e+01  4.8876699689722886e-03  5.6363329050466392e-03  1.0932847492205406e-03  2.4462403755994991e-03  8.8479401882956346e-03  2.0865473789637883e+04  7.3158373811658623e-03  7.5253346361652627e-03  7.2725649038471191e-03  7.9237315360718066e-03  7.8969763324150902e-03  6.7531630740431297e-04  5.0936192414173119e-04  4.8051556847650495e-03  5.4171062052482382e-03  4.5535826603235090e-03  4.1769345217349346e+03  9.5006238526772983e-03  2.7796393599605292e-03  9.3205418898301791e-04  5.9299489694973600e-03  1.2613046640146447e-03  1.1621197132100100e-03  9.7373588661055753e-04  3.2467781956534579e-03  1.6157114373978154e-03  5.6484483295364540e-03  1.7368026953273178e-03  4.1149210700135276e-03  1.1236876431056907e-01  2.0723887697712899e+00  9.8083650326331786e-03  9.9081145413772529e-03  1.6211708689372992e-03  4.6722728328800591e-03  8.8363881471322761e-04  9.4098322175780753e-03  2.2112985192714214e+02  7.0432143290578104e-04  7.1653057457892752e-03  7.0995851456294385e-03  3.1881999981803978e-03  1.7762042205535040e-03  -3.7165815436590970e-02  5.7007411927013545e-03  1.4072311069845400e-03  8.7642091700474104e-03  1.3003917854095761e-03  1.8895744567458831e-03  6.0609035787961198e-03  1.4634241586125932e-03  8.6642587686122634e-03  7.7750298235651899e+03  4.4318344451222274e+01  9.8849683521471192e+01  -2.5575013053105583e-02  1.9949577849505567e-03  3.0787460708423717e-03  3.5755698449563564e-03  5.9141741967932773e-03  3.8234844572001396e-03  2.1319136650299617e-03  8.4348183585726902e-04  6.4678636025583157e-04  1.4982667916879853e+02  1.9253671869027306e+05  8.2707872277447941e-02  6.3158917209789930e-04  5.3059210824851046e-03  1.0625979252699845e-03  2.5085743475330626e+00  1.3386030127391819e-03  1.4325023855025497e+01  6.5715996137126869e+00  4.1295542129513041e-01  1.5721036408040314e+04  3.1951457405530355e+00  4.7075307787763812e-04  2.7985901838066219e-03  3.3977252360052586e-03  5.0331940134551759e-04  4.9076601192601140e-04  4.7844542940855264e-04  3.5286216436765235e+03  5.4369872766189976e+05  2.9024956732104468e+05  1.3408386956200300e+00  -5.3031913587806567e+00  6.5820907402287217e-03  2.2014643635288799e-03  7.5075467916477510e+02  5.4436273842202718e+00  9.1405733834289560e-03  5.8183650262620823e+01  5.7660686062913785e-04  7.8589746459418047e-03  4.0347399868987336e-03  9.8748519893447975e-03  3.2102020879763368e-02  1.4122073890173647e-03  4.3469711455296109e-04  4.3797935613624681e-04  6.3454692685421300e-04  7.0381168512281438e+04  4.1283922137822254e-02  -1.2476369419924199e-02  4.6545034228986427e-04  4.5299907511578619e-04  5.6242617811495658e-04  2.3695906959879959e-03  1.2849529003059956e-01  4.3589965399133766e-03  5.2513815252473401e+00  4.0699759526970107e-03  9.2418769659866096e-01  7.5831582915515897e-03  7.7990742425904872e-03  7.9474361781527308e-03  1.0900645579185158e-03  8.3375296197821264e-03  6.7179655404608274e-03  -6.8708426655417223e-02  3.4418930891712841e+02  4.8982511841993443e-03  5.6948895249012430e-03  1.9488983988615601e+01  5.6362091815087479e+04  3.3440034573403820e+04  1.5051884276771976e+04  9.2245336095146093e+04  2.4808887990292408e-01  5.2741910029007995e-03  1.0835330708478142e-03  3.4331752544296706e-03  7.6130181630363913e-01  1.3460409299482956e-03  7.4491101031470795e-03  6.5763857759671687e-04  3.1634589137325856e+04  1.1126603275983555e+00  5.6495132544454266e-03  -8.6530317885760002e-02  4.2781010181399187e-03  2.6419664847417721e+01  4.1610122564545238e-03  6.7757850881760735e-03  6.2114989118450476e-03  2.3042995028986660e-03  9.8666072898158830e-04  7.2934989213708440e-03  1.4311379846851581e-03  1.2460488206689903e-03  1.1048735070258645e-02  3.2017311593157609e-03  6.5626311175816677e-03  2.9907145081071273e-03  7.4073749370483360e-03  1.0912861205947420e-03  4.8000403963851790e+02  1.7374502635332578e+02  2.6028681885020151e-03  2.2364317954244122e-03  2.1193776063029445e-03  1.7299009515452490e-03  1.7824352633959227e-03  6.8435947903446717e+01  1.3109612122438761e+05  3.8233565702306847e-03  1.9528386734389503e+03  4.7582199882968473e-03  1.2280657804613606e+03  9.1096043927295557e+02  1.4189416686021767e-02  4.0028376984850376e-03  2.6614285004748876e-03  2.5087128412834073e-03  1.9923290130846092e+02  -5.9691429317479732e-03  1.2385607908525049e+04  3.7623556106117317e+03  4.1946984680882470e+03  5.4421996454251742e-03  1.4208048389523493e-03  3.7171486861191867e+00  8.0745856026406104e-01  4.3753045625765012e+01  8.3863498259312735e+01  3.2575948023941045e+01  1.9924461475011638e-03  3.6406420950565966e-03  4.1441597249260061e-03  1.1179771014575618e-03  7.2721436757569884e-04  1.3107746294409449e-03  1.1567237259552420e-03  -1.6821174625355362e-01  7.5128657815625900e+02  3.4981853826133468e-03  2.0046059359906891e-03  6.6748299901571934e-03  4.6454633297652974e-03  1.9097007883055440e-03  7.2169397188094212e-03  2.3951725156931701e-03  1.7347253144489811e-03  2.0361645169631815e-03  6.2256045913514091e-04  1.5853698307684734e-03  8.8625285840042576e+00  5.5838752435270010e+01  4.2892698393947942e-03  4.4114910544856088e-03  -8.0647140360553227e+00  3.0482747663626289e-03  2.7058443552920751e-03  3.1925024944899695e+02  9.9548758247777953e-04  5.2293648262454178e-03  4.6038995067918575e-03  -2.8900196901311861e+00  2.2278907614777785e+00  2.3753674016470580e+01  5.5963807574287783e+00  2.1470247858883305e-03  6.4225419857843242e+00  2.1030813869401138e-03  1.0384827102667264e-03  1.4586772677121333e-03  1.2490850939643872e+02  3.7045093220577315e-03  1.0050088446972320e-03  1.7207167245370291e-03  3.1332833717326721e-03  2.4062628398327647e+01  5.0968601781372001e+01  8.8161454904