<?xml version="1.0"?>
<VTKFile type="UnstructuredGrid"  version="0.1"  >
<UnstructuredGrid>
<Piece  NumberOfPoints="6486" NumberOfCells="12696">
<Points>
<DataArray  type="Float64"  NumberOfComponents="3"  format="ascii">0 2.5 0  0 0 0  2.5 0 0  2.5 2.5 0  1.25 0 0  2.5 1.25 0  1.25 2.5 0  0 1.25 0  1.25 1.25 0  0 0.625 0  0.625 0 0  0.625 2.5 0  0 1.875 0  2.5 0.625 0  1.875 0 0  2.5 1.875 0  1.875 2.5 0  1.770833333333333 0.7291666666666666 0  0.7291666666666666 1.770833333333333 0  0.9375 0.625 0  1.875 1.5625 0  0.642361111111111 1.163194444444444 0  1.341594827586207 1.883979885057471 0  0.46875 0.46875 0  2.03125 2.03125 0  0.3626104797979798 1.513178661616162 0  1.381740196078431 0.4564950980392157 0  0.9375 2.172619047619047 0  2.172619047619047 0.9375 0  2.096354166666667 0.4036458333333332 0  0.4036458333333333 2.096354166666667 0  1.684027777777778 1.163194444444444 0  0.3418803418803419 0.8693910256410255 0  1.642742622813391 2.162164207604464 0  1.275619849389031 0.8465650753054845 0  0.9136284722222221 1.434461805555556 0  1.732437511238546 0.3406962303960658 0  0.9714402568595876 1.029779313093998 0  1.52281746031746 1.485615079365079 0  2.1875 1.71875 0  1.06819722569879 0.2997236128493951 0  2.136114211309524 1.303478422619048 0  0.3125 0 0  0 0.3125 0  2.5 2.1875 0  2.1875 2.5 0  0.3200021620376328 1.192323085056694 0  0.6738456129277992 0.8304377375553881 0  1.757891808928991 1.861952730357003 0  1.5625 0 0  0.9375 0 0  0.3125 2.5 0  2.1875 0 0  2.5 0.9375 0  0 0.9375 0  0 1.5625 0  0.9375 2.5 0  2.5 0.3125 0  0 2.1875 0  1.5625 2.5 0  2.5 1.5625 0  0.7448220909826522 0.3003573636608841 0  1.027298850574712 1.871151477832512 0  1.331260495098891 2.197262878816185 0  1.207917681892289 1.582765010956622 0  0.4339993447432606 1.801186844743261 0  0.6337298768939392 1.443093039772727 0  2.049851190476191 0.6826636904761904 0  0.6584821428571428 2.219122023809524 0  1.89575676467455 0.9798457973793544 0  1.437570562095628 1.059380588255917 0  1.502090052505845 0.6987070896496241 0  0.2040860661083546 1.705323965099331 0  0.2083333333333333 0.46875 0  0.5070952039991439 0.2211150679997147 0  0.6916302856529919 0.5813591430410241 0  2.265625 1.953125 0  2.2265625 2.2265625 0  1.886424081252096 2.243391360417365 0  1.40625 0.202164758520858 0  0.2269345238095238 0.2269345238095238 0  1.152730869673694 0.5225850378741401 0  1.885631899587912 1.312095130148776 0  1.614808884009367 0.9049784971014416 0  1.890095442220658 0.5126535558463003 0  2.323168682795699 0.46875 0  2.268811725689575 0.2304742875213018 0  0.6002389442105756 1.967426444210576 0  0.1768313172043011 2.03125 0  0.2311882743104251 2.269525712478698 0  2.03125 0.176831317204301 0  2.280262553344767 0.6954945504579233 0  1.979219539285994 1.809922269642997 0  2.336309523809524 1.09375 0  1.09375 2.336309523809524 0  0.9314042474388009 1.662973812215543 0  0.1634067999087722 1.40625 0  2.337090640094896 1.40625 0  1.141616997467638 2.069311773587991 0  0.46875 2.338939559681489 0  1.542440307908715 1.734944797244472 0  1.556713687786879 1.956977865354753 0  0.8264238995344066 1.975424467820646 0  1.466326331454725 1.275271369760862 0  1.655675324257095 0.5444159974393489 0  0.3385416666666666 0.6479255698005697 0  0 0.78125 0  0.5236073939200119 0.984090461540625 0  2.091665741047893 1.519793517904215 0  1.71875 2.5 0  0.5356538886262603 1.623137930505009 0  0 1.09375 0  0.1932884281517095 1.015625 0  0.8569313582417669 1.2198915584249 0  0.8876981284879677 0.8329884081524883 0  1.115618488474214 0.7219586973356271 0  1.186950366204949 1.043465130075318 0  2.057459118787237 1.110823087309335 0  1.830651283878689 2.049810069572418 0  1.689107969301489 1.367247437031697 0  0.4921048768039656 1.298643370653124 0  0.8213975694444444 2.336309523809524 0  2.03125 2.5 0  1.049729400480002 1.283723261332814 0  1.308101375801673 0.6489479469700392 0  2.5 2.34375 0  0.4968777175037714 0.7562964879736076 0  1.40625 2.5 0  1.501347663534097 2.307027627307738 0  1.602813712048603 0.1926218191360736 0  0.8393082906308107 0.463778306132633 0  1.682663349152719 1.598471865581041 0  0.7774174680851571 1.560004941327907 0  1.554204170364662 0.3898593897892066 0  1.842184459051087 0.186443880058197 0  1.358107417651776 1.696381759610015 0  1.18859291992392 1.77598670078022 0  0.1875331222687418 0.7609599743339348 0  1.339536743965101 1.422080365801479 0  0.7788179348750389 0.9955343414928611 0  0.9062978492805438 0.1919636509126373 0  1.256007360640958 0.3160320559396114 0  1.09375 0 0  1.174986727221844 0.1594990293443933 0  2.34375 1.796875 0  2.318026474511116 1.589177949022232 0  2.34375 2.5 0  1.672742954892153 2.332882724550692 0  0.2683637361947215 1.874801596909639 0  2.174770749820102 0.5581009131310781 0  1.443279522965991 0.8870068372898454 0  0.3385416666666667 0.3571428571428572 0  0.78125 0 0  2.060421048269335 2.314363248763811 0  1.088078737088509 0.8967352118723447 0  1.087825368444708 1.454931510884769 0  2.018308232129541 0.8548495425854904 0  1.943987311736842 0.3246298523011434 0  1.71875 0 0  1.85337849796276 1.144833312386208 0  2.3486328125 2.1044921875 0  1.407588788651747 2.042968789119587 0  2.336309523809524 0.865366648092144 0  2.34375 0 0  2.5 0.15625 0  0.15625 2.5 0  0 2.34375 0  0.1638044648294291 1.242263417405867 0  0.356216654757926 1.032569427322806 0  0.3188217956111817 1.355736727000647 0  0.5924956460852111 0.36112522004736 0  0.6594216488965849 0.1603472116132387 0  1.841804599497131 1.72214349266521 0  0.15625 0 0  0 0.15625 0  2.115898634821499 1.894570904464496 0  0.7821877980253907 0.7129993435924866 0  1.003820447087786 0.4516053462784233 0  0.477562948779147 1.138333049293613 0  0.719493678605015 1.305655360135975 0  0.9772457618587566 2.020350128938537 0  0.8764738248887107 1.826219722709673 0  1.254787875123819 2.339010653832026 0  2.343597354852534 1.249982759769001 0  0.78125 2.5 0  0.46875 2.5 0  2.5 1.40625 0  1.09375 2.5 0  2.5 0.78125 0  2.5 1.09375 0  2.03125 0 0  2.5 0.46875 0  1.40625 0 0  0.46875 0 0  0 0.46875 0  0 1.40625 0  0 1.71875 0  0 2.03125 0  2.5 1.71875 0  2.5 2.03125 0  2.005424054645407 1.653223486966518 0  0.1538730573856537 1.559850281736677 0  2.33984375 2.33984375 0  1.166539506212474 1.922878979538754 0  0.3914885633949916 1.65887232812171 0  0.5795503163042564 1.766243562569382 0  0.399533125920212 1.946786875081388 0  0.7866324979014098 2.127719094551316 0  0.3654683023546834 0.1495701132219454 0  0.1527388747131078 0.6116379440619215 0  2.013737577140188 1.391056634712135 0  1.17635437372994 2.213329084238133 0  1.737118141866284 1.010577140843115 0  2.200707118087222 1.164723314085963 0  1.697018908736685 1.993548551451517 0  0.5387621649009668 0.6070503962352419 0  2.032805785855952 0.5330427622570983 0  1.082699501358059 1.667818725183932 0  1.503819781540653 0.5468420196858188 0  2.015409142866072 2.175941657590429 0  1.752057611265444 0.869642097111018 0  0.612251684107783 2.356045720700959 0  1.902817102342857 0.6607642211999982 0  2.159616561739693 0.7867739969338844 0  0.5120038350106624 2.197302352398502 0  1.888200216011548 1.919501662489862 0  1.495909909726654 2.16028358757309 0  0.489139876703609 1.443203008943564 0  0.8819175670410521 0.3301172743913011 0  1.882591144370812 0.8155965192707721 0  1.133979796994841 1.172526771862882 0  2.206217447916667 2.084147135416667 0  2.20361328125 2.36279296875 0  1.395746985657004 1.556054166359645 0  1.704383111516207 1.734750450338683 0  0.9575737847222222 2.36274223823052 0  1.035150984253136 0.1302833343179028 0  1.383966125325753 0.7651479963479179 0  1.64003252158672 0.6824316405528895 0  2.22550785055421 1.487078576356817 0  1.760964431499756 1.48495222505201 0  1.276460980673788 2.004207003584658 0  0.1341477688427096 1.828777507920502 0  1.542261434180652 1.155296658359034 0  1.334627911613854 0.9696897472490321 0  1.30794231473696 1.119420615785191 0  0.7028260459857245 0.4438906910721139 0  1.625757433094055 1.84268057552138 0  0.9818707849053143 1.165603626132254 0  2.0086489901463 1.243134585689553 0  1.934584460420609 2.374094051915812 0  1.798434376789567 2.38671361912528 0  1.206314791201715 1.382064292497919 0  0.6333752893366955 0.7023738550008095 0  0.7796219811205605 1.42573253164258 0  1.564399711917382 1.026040828857629 0  0.3385416666666666 0.4889012896825397 0  0.1041666666666667 0.390625 0  0.989112246382566 1.543537365516289 0  2.025724425454636 0.9846960595520872 0  0.6602885475034063 2.086117390485779 0  1.607130551925032 1.267198646640915 0  0.1317864544877056 0.8896173683400176 0  1.755387840017567 2.230364320056445 0  1.301540702984401 0.1216289692748247 0  1.433170657577442 0.3331052752740999 0  1.500459610550388 0.113513924782439 0  0.6494291520606965 1.029586599619295 0  1.010146149868299 0.794897284196169 0  0.3700844198238017 2.235390157870766 0  0.3360891767780704 2.36656279435396 0  1.876856241037701 1.437150669863757 0  1.778674102957329 1.245979347269706 0  0.5472829890977179 0.1005517127039925 0  0.4669074189005698 0.3416784232954367 0  1.472765289289269 1.850899166481903 0  1.555853593327178 1.608452097912802 0  0.6708955559113426 1.646561631116984 0  0.8164699620322933 0.5924479455478063 0  0.3167738989468366 1.758696809749795 0  0.2788007305565096 1.605499483471246 0  0.7821720982350511 0.181524936294752 0  1.376812251214195 2.313340247908297 0  1.785652202614777 0.5962261755537186 0  1.761467296310972 0.4679567244718574 0  2.2265625 1.8359375 0  2.3828125 1.9140625 0  0.5279531607054191 2.071552361614785 0  2.397573269551114 0.234375 0  2.383578172599618 0.3589298466020009 0  0.1024267304488855 2.265625 0  0.1164218274003825 2.141070153397999 0  0.2696857594953064 2.135405441512016 0  2.164961300137334 0.1375322943529536 0  2.137757548369486 0.2724194778647587 0  2.238873711826398 0.3626419179496562 0  0.1001414910226386 0.234375 0  0.2176339285714286 0.3478422619047619 0  0.2503620791333544 0.1061694061057066 0  2.336445461915368 0.1250451055247424 0  0.2154004640409726 2.3918124
[...]
<PointData  Scalars="f_49-3"> 
<DataArray  type="Float64"  Name="f_49-3"  format="ascii">-9.8554246070661370e-05  1.9188591788607219e-09  1.8174037558664810e-10  3.9531782069207692e-04  1.0728073444050704e-09  2.2979299577128429e-10  -9.3939961452552484e-05  -9.9996064609617538e-05  2.3210232932587035e-04  -1.0069529577718925e-04  1.5221639375761453e-09  -9.9170729805390763e-05  -9.9995399668100963e-05  1.6816701305364788e-10  5.9703357378897642e-10  1.2269340482796641e-06  8.0383026608919403e-04  7.5114038416005714e-10  -8.9580194898521034e-05  1.1408857192869459e-08  1.7866643209751409e-05  1.4950568895445407e-03  1.1666994449370423e-03  3.2584050481772626e-08  3.9165216105791579e-04  -9.9978397811979576e-05  1.0198123658999927e-09  -9.7648147822311057e-05  4.5106615856000349e-10  4.4951433233952737e-10  -9.9986299224410198e-05  1.6390120785390063e-07  1.4532950972368367e-03  1.0984493077117606e-03  1.4143833457748753e-08  1.4379476283782960e-03  7.1694009401594222e-10  2.6386577983310928e-04  2.2305638499575849e-04  4.0199885491153069e-06  1.2248746066622387e-09  3.1342930520165767e-09  1.7018083640799888e-09  6.5637407417247936e-07  5.7899404545289753e-05  1.0469099759214779e-03  -8.6638928725161886e-05  5.8383767317038437e-04  6.0173584251621158e-04  8.1807484657238506e-10  1.2954365521080923e-09  -9.8555932959770847e-05  3.4457606193225363e-10  1.8022583237140283e-10  -9.9977192549977341e-05  -9.9996301584884408e-05  -9.9420556544496124e-05  1.6101290472942864e-10  -9.9938831499533565e-05  7.0200946528557124e-05  4.6770691718835387e-09  1.4367965356679533e-09  8.7683068794314314e-05  1.1067920629400033e-04  1.5234906822989859e-03  -9.9994775187559629e-05  4.9412918523281002e-05  5.0831613131424336e-10  -9.9959530655132381e-05  6.8247919134769240e-10  7.4917736713198258e-07  9.4288402409572098e-10  -9.9996379927129344e-05  1.5474863057963255e-04  1.5852472607761970e-09  4.4371960998684015e-07  3.3159103497765004e-05  3.9944967784539458e-04  1.1612751604631935e-03  9.6368408085079755e-10  2.2568633301248238e-09  1.1807579052739122e-09  1.6420648386841673e-07  1.1260570696672562e-09  6.1544208146157154e-10  2.7518894448015862e-10  3.1063549881297446e-10  -9.9978573899516096e-05  -9.9989158751838668e-05  -9.9851181684651932e-05  4.9421837519435133e-10  3.2341587119366020e-10  1.1069010874067837e-04  3.2591433977981456e-10  -9.6061942168551226e-05  3.6564035881424397e-04  -9.9996004408462862e-05  1.7439766574006747e-09  -4.9272782142193091e-07  -9.9773582605203998e-05  9.2821464904204614e-04  1.3255959710912453e-03  -9.6289692428632687e-05  3.1168041243371162e-05  8.2594753943727971e-10  2.3208413849763456e-03  -9.9858360475471174e-05  2.0705776755684962e-03  4.0720006170651675e-07  3.9859759131394290e-04  -9.8285131351968471e-05  -9.9995901253270521e-05  -9.8704806565719537e-05  1.8191402036373267e-03  2.6274255938439048e-05  5.1243554283304339e-09  3.0531652475223810e-05  6.0001638060252308e-10  9.3952443043505908e-04  7.7634469522584189e-06  -6.4478234598479952e-06  -9.9867173147293796e-05  1.0932009169240880e-03  1.1497528894166200e-03  1.0718074762999857e-09  1.8377355692638858e-04  1.5329855478226251e-03  -6.3072596374037700e-05  2.4859524091353630e-04  8.0326777176027369e-10  1.3840659733677573e-09  1.7155961376764955e-04  1.3246194983217459e-04  8.8121498913546877e-10  6.1759473960797849e-10  1.4018177230265415e-03  1.0136506960912743e-03  5.9222213362740113e-04  4.6407919584525971e-04  1.1054707823836632e-03  1.3266591213963630e-09  1.0986247018744404e-09  1.1885902637183227e-09  1.1570599382238508e-09  2.0585602689208518e-06  8.4113440300625825e-08  7.0040730545084258e-04  7.1458217428636047e-04  -9.9996252860504504e-05  3.8742985788921010e-10  4.1830415677847349e-09  4.2399548253216844e-08  1.3988187009182614e-09  9.9921933763023906e-04  3.8403781133194435e-06  1.5848466084398688e-03  5.7203304415421522e-10  5.5786261817184023e-10  7.1343136711273371e-10  4.6780594392635576e-09  8.3047745851837275e-05  7.8874669425470841e-04  2.8948078665356206e-10  2.6765428943453823e-10  1.7550443193894026e-10  -9.8523941366506155e-05  -9.9434330202300978e-05  -9.9989673560949902e-05  1.7331117668497478e-04  -9.9727299131196961e-05  1.7482239708495018e-09  1.4942320201859244e-09  1.4718959052126255e-04  1.8213673559036530e-09  1.2391983537756532e-08  7.7104152372467141e-05  7.2084603430271046e-06  1.2840496894429743e-09  4.3333883298262658e-04  1.0821309010181966e-03  -7.8153090997396259e-05  -4.7359895973288771e-05  -6.9301446417597190e-05  3.6414821216229631e-10  -9.9336700691270033e-05  -9.8825788140649467e-05  3.2261317980295005e-10  -9.9065308791741744e-05  1.8258604022955663e-10  2.0486026540969338e-10  4.9244898740553419e-10  1.6413037454462913e-10  9.1195178970221441e-10  1.6162741651142879e-09  -2.5234488758181703e-05  -9.9996182735547000e-05  -9.9996386316621402e-05  -9.9988294777215257e-05  7.9976591166618925e-08  1.0214832120195827e-05  1.0885952846491875e-05  -9.9996281118473548e-05  4.0658763503188258e-04  3.4592228277863566e-04  -9.9994164236475377e-05  -9.9589806915064875e-05  -9.9995834280806528e-05  -9.9804671534685683e-05  1.6684644634457100e-09  3.0621967021391638e-03  1.3570706759630703e-07  -6.0675551462671864e-05  1.5152463505148269e-09  4.5447815118298211e-10  1.1501684418246090e-03  5.3304009790802937e-05  5.1344787391236964e-10  1.0442150122458658e-03  9.3212116318596645e-10  7.9359296639985974e-04  7.7669400036234374e-10  -9.9786994436045984e-05  6.3063336957134399e-10  4.3376270242632344e-10  -9.9959736569612225e-05  4.3775104852761363e-04  6.7516375452680562e-04  -8.8842764582363175e-05  1.3444377204404513e-09  6.5888637834646005e-10  2.9311592332669997e-04  1.9965837552830435e-04  7.5595679823744870e-04  7.8581973875104134e-04  4.2289321172893238e-04  -9.9676095918138638e-05  1.2450417207468034e-09  1.1068448587818519e-09  8.3956916611165715e-10  4.6931856263372408e-08  2.3231912372295520e-05  4.3060829599040360e-04  -9.9996378018432294e-05  1.1635125772252548e-06  2.3725534840895966e-07  2.0197458236084657e-05  2.5904623168595349e-09  9.8319830449247010e-04  9.2517967277554603e-04  8.5013265702947855e-09  1.1325230851854451e-03  8.8842159241794177e-04  8.6482517680096520e-04  1.1097073639942452e-04  6.7328148843177947e-04  2.1315523746702574e-08  2.0276752446625973e-05  -4.2479366012192178e-05  1.2093041954996978e-03  5.6299183377611653e-10  -9.9979327327219718e-05  4.9983134895732162e-06  -9.7879132866192281e-05  1.1313267229771185e-03  1.0380259647598894e-09  9.7031653056990538e-10  8.7197126755696271e-10  2.1313584963586194e-03  1.5813736478835604e-06  -9.9920257115169886e-05  -9.9629640425030462e-05  1.9912973074336834e-06  2.4320500173128043e-07  1.5601238449519262e-09  1.8530412445728711e-09  1.3734558672573276e-03  4.1729878229612559e-04  -8.1937506879457473e-05  4.0975946027437990e-08  -9.9996376286263619e-05  -9.9996206478804604e-05  1.4158357524207410e-09  2.9798548378818224e-05  7.2907897065940625e-10  7.1572839135443901e-10  1.2555555403963230e-05  6.0314528981570278e-06  -9.9991637779640215e-05  2.0611347231423249e-10  2.3729155808131330e-10  -9.9824375536942064e-05  -9.9967236147329786e-05  -9.9971028956321738e-05  3.9084595865136819e-10  4.1960145477014439e-10  3.5574137287175287e-10  -3.5170209736256027e-08  1.1671539042095594e-06  1.7621876864132205e-09  2.4830067217296118e-10  -9.9405519261810106e-05  -9.2479961454900876e-05  1.7541412129079256e-09  7.2475148217603569e-10  1.4945503421967730e-09  1.1616600860415275e-09  1.0843702088852963e-09  -9.9994245057005563e-05  7.0848126525197041e-05  1.9456145638041661e-03  -9.9994390911781628e-05  5.5885031494516593e-10  2.5243958783372853e-10  2.4648900518943858e-10  1.7135939694991258e-04  -1.9917874164874103e-08  -9.8878110113931317e-05  -9.9992590049852688e-05  9.5725125748174707e-10  4.5929560301431864e-07  5.0859034741221912e-05  6.4152107569286923e-10  2.5346680768371407e-03  -4.6008607292476246e-06  2.0626065031345016e-04  4.1423530326644557e-10  1.3608978605861959e-09  4.2657357471133998e-10  7.4727648923649656e-05  -9.9640059584107615e-05  2.6891010347795077e-10  -6.6135050732101099e-05  5.3085938160010889e-04  1.7152981789016603e-05  2.3821654532586991e-04  5.4444010404526854e-10  -9.4966305919439898e-05  -9.9990861709823867e-05  -9.9996052321442300e-05  3.0919573830057163e-09  1.0534229267897748e-09  1.0111195427135022e-03  7.7272818504980461e-10  8.3631352431288274e-10  9.5646222222502413e-04  6.5763557633564363e-10  5.4487902265260504e-08  1.2456772578518405e-03  1.0386802925162520e-05  -9.9710542171689996e-05  1.7545015237299569e-03  2.8851831532844471e-03  1.8960507160991841e-04  2.3631807162821025e-03  8.0530029806051788e-10  -9.9996349296540039e-05  -9.9994427582617376e-05  3.1144024391833894e-10  2.6788102997501971e-10  -6.7519429371211398e-05  -9.9213466256554213e-05  3.9666559491439724e-04  3.3993545714759555e-06  3.7604593018545559e-08  1.0085191912610216e-09  1.0691748394064901e-03  8.8530452287793817e-10  1.2147952090320725e-03  -9.6704487677161445e-05  -7.0150422582874805e-05  1.7796556436751093e-04  -9.9996228472216104e-05  1.9914182984917226e-09  4.7341625954176308e-04  9.4385927726454923e-04  2.5501934286198717e-04  1.7778735206683505e-06  3.8351112510936229e-05  1.9325012619634933e-03  1.4261747727726749e-06  1.1271986316781816e-04  4.4327639447619500e-05  5.9218615189939509e-10  1.5329341169967202e-03  5.4400724542358033e-04  1.5037937370042671e-03  2.5738252897279432e-05  -8.5419184215178081e-05  3.5727820791020952e-10  6.5106306243557170e-04  1.0940334284069715e-09  1.5130824063821423e-09  -9.9836909101190240e-05  6.3870828009458168e-05  2.6541712864769753e-04  1.2624200454573457e-04  1.9895563225002489e-04  7.9349095039262098e-10  7.6333359417903572e-07  1.6880121581003425e-03  3.5433213810224106e-03  -9.9959404385766961e-05  6.8793053637757700e-10  5.0877774369050160e-10  1.0638690937565163e-03  8.2599433572802661e-10  2.8991870861744989e-04  -7.7875952454312247e-05  1.7417119485945028e-03  2.1959074055651329e-10  1.1886540903356120e-09  3.2448630720293054e-09  9.4346069653612235e-08  3.7581050980039792e-10  -9.9915606585803567e-05  -9.9044366436794044e-05  1.4672828585251289e-06  7.9954286797214683e-04  1.5113194827459141e-03  -9.8911192910644099e-05  5.6228908209652066e-04  1.1921625597392127e-03  2.5766540852591153e-04  6.9485623735846490e-04  3.6425165875844599e-05  -4.1673871369243110e-05  -9.9776382421245185e-05  1.5567524949769266e-04  8.1672484459349519e-04  6.0044344302692860e-04  1.4517524127638504e-09  1.3735416297647473e-03  -9.9709512308905900e-05  -9.9909535700210301e-05  4.8718270614463704e-10  1.0890771423335489e-09  -9.9742702665576693e-05  9.5551829747093426e-10  1.0407323175146246e-03  1.4350653566193500e-09  3.2096422397168339e-10  -9.9996391380613312e-05  5.3477216087077603e-05  6.5502868894177142e-10  7.1357324062067021e-04  9.7952183904847839e-04  4.5995333420305399e-04  1.0011622222575507e-09  1.2917467830338707e-09  3.0340507797227560e-10  1.3676853749222042e-03  -9.9975593552443826e-05  2.6187173722852129e-04  2.5820867282241910e-05  3.7554693565685415e-10  -9.9350159627593251e-05  2.9120757374201651e-08  2.5110720762885415e-03  1.2299451375397234e-03  -1.0383686858240911e-04  1.3146498972789660e-03  8.8318157824826592e-10  -9.9795522224361644e-05  4.1481663076065885e-10  4.6433099007037875e-10  -9.2722394034368310e-05  -9.9490969137953954e-05  1.5239861968657483e-03  8.7779506212157457e-10  3.4818459442574248e-03  5.4785317905370448e-10  1.4338045381199420e-09  2.2745396239570280e-09  1.1602312042752900e-09  1.0397370105672894e-09  1.0321431644070317e-09  1.3378417335042428e-03  8.9536829788715170e-04  1.3772274862695621e-03  1.6132648929101313e-09  -9.8726038956600833e-05  1.0988271207631286e-03  7.0694907440880638e-04  -9.9894071081661772e-05  6.2993577788138114e-04  1.8478569479854552e-04  1.3293265129742682e-08  1.2112046725177075e-09  1.6615369697209660e-03  -9.9984297147735356e-05  4.4033529436139477e-05  9.4977161957721713e-10  4.6016425473264164e-06  3.5295993368798618e-09  1.8065409531649601e-10  1.4065119184951658e-08  1.4346497456337451e-08  1.1778282843573826e-03  -9.9995764168735404e-05  3.0802807075642634e-04  5.5161396305538844e-10  1.1949958736783659e-07  7.7458367140040879e-05  1.6448622057355417e-09  1.6217758161365942e-10  2.2189007069737408e-10  -9.9226018968910510e-05  1.2959592413763647e-09  -9.9996325027152419e-05  -9.9996390075627285e-05  7.6606780138652774e-10  1.1250244837858253e-03  1.2700276458117661e-09  3.4293138251416280e-04  1.4300360762341369e-09  9.5689254389124865e-04  1.0835326296616143e-09  -9.9996321673636684e-05  -9.9995285903052989e-05  -9.9463938656346016e-05  -9.9537743455599525e-05  1.1946919331229557e-09  1.3823281592070692e-09  6.0266857097627323e-05  3.1534821994117064e-10  -9.9964175518905962e-05  -9.0986513915692634e-05  8.2940461427374240e-09  1.0315098088570224e-09  4.0990487734679371e-05  -9.9990263686807723e-05  2.1681483449365411e-05  4.5850975254019114e-10  1.1019664429785495e-09  1.7560659333319351e-10  5.2348838478640125e-10  5.1312106986795146e-10  6.1533856905947797e-10  1.4477047512030218e-06  1.0045295100774025e-05  2.6275004427615968e-07  1.8198090993150706e-10  -6.6791438191046292e-05  4.3020210293304010e-10  -7.1858834208823698e-05  7.7158558312974055e-05  2.0310623833873258e-09  8.9545859134015872e-04  5.9975360423947753e-04  9.0445603661976189e-07  7.1393624171034220e-05  2.0142571817731073e-04  1.8177519010030483e-08  4.3790596800470224e-08  2.8246415406997512e-10  -9.9947236054802194e-05  4.9448403698918978e-05  1.3278375557422232e-09  5.2548294584243459e-05  -9.8455648139611431e-05  3.1763476020226481e-10  -7.7764510031061785e-09  2.4998765734186473e-06  1.0891363709720522e-08  3.9176488830438243e-04  2.0783687023565659e-10  6.0145007415916630e-05  -9.9997634092492189e-05  2.2322942849879740e-10  -9.9691214262732846e-05  8.8393940131170741e-10  7.9066004653561834e-10  5.5789419978605995e-04  2.1948621786028563e-04  5.0703923353714994e-04  1.1140251736282815e-03  2.5750623190862303e-05  6.2515286234012153e-04  -9.2768482019678773e-05  1.4667082822515329e-03  4.5949914760692606e-10  2.3050459999153900e-10  -6.4665430072774233e-05  1.0000077950647682e-03  1.5385587400436781e-09  8.9135352064743178e-10  3.5057566015267100e-06  3.6259205414573235e-04  -1.3677873308266186e-07  3.2958734438777931e-04  7.0679088328377761e-04  -9.5068310658231566e-05  6.9334645214256045e-06  1.2224802710751301e-09  6.9157326863251722e-09  6.7180546331008308e-10  1.4682914730245425e-09  -9.9991078693197939e-05  1.5536715940848153e-09  1.5222782390740667e-09  1.4686867377594773e-09  9.7935922449648554e-09  1.5773768278395814e-09  2.5780273770871362e-10  1.9519403331932263e-10  9.2334388245441225e-04  1.5758461599061681e-03  2.2311030157911272e-06  -9.9836819275136621e-05  -2.7372120863566131e-07  3.7146726742096645e-04  3.7485885213070112e-10  1.2602361881168611e-09  4.3301996803093305e-05  3.3541121600850663e-10  9.9914393085290561e-05  8.9161239166430132e-04  7.7533384498963524e-04  6.2493642788667477e-07  6.4278491648070207e-05  1.0510618556242291e-09  -1.5664426918537812e-05  -8.7664475542289852e-05  1.8547359784506103e-09  2.0746670814818867e-09  1.9440333672227257e-04  1.0023249585232217e-09  3.2219969709845189e-04  2.3241256838135927e-09  -9.9964057053855029e-05  1.9891584658489844e-10  7.6988205695684991e-06  8.9267109441753834e-05  9.3268964847082047e-10  3.0545068124636407e-06  2.8188501692978646e-04  1.2278949894092453e-09  9.7757541579252720e-04  1.7035099852915295e-09  3.2935128732961393e-10  4.8944007961975465e-10  1.2712211759030251e-09  4.9668166839261031e-10  7.4315195382743202e-04  -9.9996356151926184e-05  -9.9363096375974384e-05  -9.9100965515991576e-05  1.7438376606811301e-06  6.4065317760804809e-04  7.1366065790444001e-10  2.3135549073680461e-04  1.3361997214050342e-03  1.4000661718425397e-03  8.9912326423603452e-07  4.9394054509790458e-10  2.8908795807864399e-10  -9.9975166395776177e-05  -9.9995561577347335e-05  -3.3726314408079841e-05  8.5353152164786947e-09  1.1176929341519794e-09  8.9906365881222057e-04  -9.9372354409015275e-05  1.1050521637544736e-03  -9.9149417635310336e-05  -9.8590455276869688e-05  -8.4077016168603838e-05  -9.9996350693312886e-05  -9.9296163603256125e-05  2.2243098909442140e-08  6.4167783191874506e-10  7.6183136691688511e-10  2.1515632635083968e-10  2.4478076745039466e-10  9.2570553086372643e-10  -9.9995564966987521e-05  -9.9996005672013229e-05  -9.9996131209227371e-05  -9.7582766219310820e-05  -9.8490656045012342e-05  1.3448336508600066e-09  5.4669402178800520e-10  -9.9994076279965354e-05  -9.8459141913207911e-05  1.7702850951667210e-09  -9.9727667902266713e-05  1.6495521786872965e-10  1.5769114323091674e-09  8.7498639272320807e-10  -9.9494647885958160e-09  4.1541266977795493e-06  6.4011006288088111e-04  1.0931149148869313e-04  2.9204233254837432e-04  5.3376285882846268e-04  -9.9996253736454803e-05  -1.8809638339880587e-05  -4.6897142188076968e-05  2.8573989849570021e-07  2.4814579067939866e-05  1.6180612947375194e-10  6.5113049228852743e-10  -9.1892192171113350e-07  8.9352104508338211e-04  -9.9644919033042603e-05  9.5801012440140405e-10  -8.6770641231390236e-05  -3.3291960840059047e-07  4.5218628930630893e-04  5.6288277527727152e-06  3.3869283608646111e-06  1.6274486634998204e-09  4.6034019699095973e-04  3.7793001194612330e-04  -9.9993433123687120e-05  1.6944214728822511e-03  1.2235958114537366e-09  -9.3101368089620472e-05  -9.9996141525329104e-05  -9.9996294473626767e-05  -9.9996312565691736e-05  -9.9994576258041534e-05  1.0422594952223306e-03  4.4679662873396290e-03  4.0398993764697298e-10  1.2707986832409851e-03  -3.2188650206809988e-05  7.0657162635062730e-10  6.1537631048297304e-04  8.0956050014842091e-10  -9.9996270344861280e-05  -4.6551665383026213e-05  5.3817675357420458e-04  6.6223413786859831e-04  5.0089294934355338e-04  -9.0242181884055134e-05  9.7175546404099629e-10  1.8869946941519721e-03  1.2802705087200932e-03  5.8500926589226532e-10  3.4155778783634138e-10  2.3556636476350784e-03  4.5420248862585471e-10  3.7822826118590904e-10  7.9192776352025862e-04  1.1578932174055831e-08  3.7771347971812563e-08  1.1458404913904732e-06  7.2394704912637163e-08  3.9847773765976842e-07  -9.7726263035969259e-05  -9.5702803123349237e-05  1.0229394674064714e-03  3.1315169352792575e-07  5.7846220725840226e-08  1.8201521136911732e-07  2.1181919739599141e-08  -9.9977571208679283e-05  -9.9996175923964723e-05  1.6117463365060826e-04  -9.9953261262609308e-05  2.4424952127181438e-09  -9.9996227743087948e-05  -9.9996160909778445e-05  7.0745220190054559e-05  7.6793468257349105e-08  7.0705837873004507e-10  6.4761870808411593e-10  -9.9988052074360224e-05  1.1808443997940422e-04  -9.9992189581225516e-05  -9.9825199049960163e-05  -9.9991913327563886e-05  1.9311817908203573e-05  3.9569792961200884e-10  -8.7835516363873658e-05  -6.6044980101839416e-05  -9.9957246534308625e-05  -9.9963094408280840e-05  -9.9913857940768874e-05  5.4214396071948869e-04  8.9323960763868201e-05  9.3904882528014603e-10  1.2062858120111276e-07  2.3918498836973707e-10  4.3748057123237830e-09  5.9097796253146958e-04  2.8897032398903275e-04  -9.9883437586729024e-05  1.3618149109449186e-05  5.1077030781801658e-10  1.2973656793411042e-05  1.0187809536627605e-09  9.1393293166536064e-04  2.6201568856914041e-03  5.9036118914044224e-10  5.2950647900162993e-04  1.0106614320189026e-03  1.0572173615217216e-05  4.6108938046404464e-10  -9.9188893091011978e-05  -9.7798615014208805e-05  1.1592197282070177e-03  4.8546092766366907e-05  -7.5654116451741267e-05  1.2784173682472678e-03  1.0663354100291062e-03  -9.8456313504812097e-05  2.8303196394440429e-10  1.1438793980416447e-09  1.4679847612337729e-03  -5.4721662930444508e-05  -7.1305832542757671e-05  -9.9900962968591100e-05  -9.9579670926551515e-05  5.6129063945900815e-10  -9.9224720642006976e-05  5.7381636591560532e-10  2.8006923813664510e-10  9.2975047830227856e-04  -9.9983434260102278e-05