<?xml version="1.0"?>
<VTKFile type="UnstructuredGrid"  version="0.1"  >
<UnstructuredGrid>
<Piece  NumberOfPoints="6486" NumberOfCells="12696">
<Points>
<DataArray  type="Float64"  NumberOfComponents="3"  format="ascii">0 2.5 0  0 0 0  2.5 0 0  2.5 2.5 0  1.25 0 0  2.5 1.25 0  1.25 2.5 0  0 1.25 0  1.25 1.25 0  0 0.625 0  0.625 0 0  0.625 2.5 0  0 1.875 0  2.5 0.625 0  1.875 0 0  2.5 1.875 0  1.875 2.5 0  1.770833333333333 0.7291666666666666 0  0.7291666666666666 1.770833333333333 0  0.9375 0.625 0  1.875 1.5625 0  0.642361111111111 1.163194444444444 0  1.341594827586207 1.883979885057471 0  0.46875 0.46875 0  2.03125 2.03125 0  0.3626104797979798 1.513178661616162 0  1.381740196078431 0.4564950980392157 0  0.9375 2.172619047619047 0  2.172619047619047 0.9375 0  2.096354166666667 0.4036458333333332 0  0.4036458333333333 2.096354166666667 0  1.684027777777778 1.163194444444444 0  0.3418803418803419 0.8693910256410255 0  1.642742622813391 2.162164207604464 0  1.275619849389031 0.8465650753054845 0  0.9136284722222221 1.434461805555556 0  1.732437511238546 0.3406962303960658 0  0.9714402568595876 1.029779313093998 0  1.52281746031746 1.485615079365079 0  2.1875 1.71875 0  1.06819722569879 0.2997236128493951 0  2.136114211309524 1.303478422619048 0  0.3125 0 0  0 0.3125 0  2.5 2.1875 0  2.1875 2.5 0  0.3200021620376328 1.192323085056694 0  0.6738456129277992 0.8304377375553881 0  1.757891808928991 1.861952730357003 0  1.5625 0 0  0.9375 0 0  0.3125 2.5 0  2.1875 0 0  2.5 0.9375 0  0 0.9375 0  0 1.5625 0  0.9375 2.5 0  2.5 0.3125 0  0 2.1875 0  1.5625 2.5 0  2.5 1.5625 0  0.7448220909826522 0.3003573636608841 0  1.027298850574712 1.871151477832512 0  1.331260495098891 2.197262878816185 0  1.207917681892289 1.582765010956622 0  0.4339993447432606 1.801186844743261 0  0.6337298768939392 1.443093039772727 0  2.049851190476191 0.6826636904761904 0  0.6584821428571428 2.219122023809524 0  1.89575676467455 0.9798457973793544 0  1.437570562095628 1.059380588255917 0  1.502090052505845 0.6987070896496241 0  0.2040860661083546 1.705323965099331 0  0.2083333333333333 0.46875 0  0.5070952039991439 0.2211150679997147 0  0.6916302856529919 0.5813591430410241 0  2.265625 1.953125 0  2.2265625 2.2265625 0  1.886424081252096 2.243391360417365 0  1.40625 0.202164758520858 0  0.2269345238095238 0.2269345238095238 0  1.152730869673694 0.5225850378741401 0  1.885631899587912 1.312095130148776 0  1.614808884009367 0.9049784971014416 0  1.890095442220658 0.5126535558463003 0  2.323168682795699 0.46875 0  2.268811725689575 0.2304742875213018 0  0.6002389442105756 1.967426444210576 0  0.1768313172043011 2.03125 0  0.2311882743104251 2.269525712478698 0  2.03125 0.176831317204301 0  2.280262553344767 0.6954945504579233 0  1.979219539285994 1.809922269642997 0  2.336309523809524 1.09375 0  1.09375 2.336309523809524 0  0.9314042474388009 1.662973812215543 0  0.1634067999087722 1.40625 0  2.337090640094896 1.40625 0  1.141616997467638 2.069311773587991 0  0.46875 2.338939559681489 0  1.542440307908715 1.734944797244472 0  1.556713687786879 1.956977865354753 0  0.8264238995344066 1.975424467820646 0  1.466326331454725 1.275271369760862 0  1.655675324257095 0.5444159974393489 0  0.3385416666666666 0.6479255698005697 0  0 0.78125 0  0.5236073939200119 0.984090461540625 0  2.091665741047893 1.519793517904215 0  1.71875 2.5 0  0.5356538886262603 1.623137930505009 0  0 1.09375 0  0.1932884281517095 1.015625 0  0.8569313582417669 1.2198915584249 0  0.8876981284879677 0.8329884081524883 0  1.115618488474214 0.7219586973356271 0  1.186950366204949 1.043465130075318 0  2.057459118787237 1.110823087309335 0  1.830651283878689 2.049810069572418 0  1.689107969301489 1.367247437031697 0  0.4921048768039656 1.298643370653124 0  0.8213975694444444 2.336309523809524 0  2.03125 2.5 0  1.049729400480002 1.283723261332814 0  1.308101375801673 0.6489479469700392 0  2.5 2.34375 0  0.4968777175037714 0.7562964879736076 0  1.40625 2.5 0  1.501347663534097 2.307027627307738 0  1.602813712048603 0.1926218191360736 0  0.8393082906308107 0.463778306132633 0  1.682663349152719 1.598471865581041 0  0.7774174680851571 1.560004941327907 0  1.554204170364662 0.3898593897892066 0  1.842184459051087 0.186443880058197 0  1.358107417651776 1.696381759610015 0  1.18859291992392 1.77598670078022 0  0.1875331222687418 0.7609599743339348 0  1.339536743965101 1.422080365801479 0  0.7788179348750389 0.9955343414928611 0  0.9062978492805438 0.1919636509126373 0  1.256007360640958 0.3160320559396114 0  1.09375 0 0  1.174986727221844 0.1594990293443933 0  2.34375 1.796875 0  2.318026474511116 1.589177949022232 0  2.34375 2.5 0  1.672742954892153 2.332882724550692 0  0.2683637361947215 1.874801596909639 0  2.174770749820102 0.5581009131310781 0  1.443279522965991 0.8870068372898454 0  0.3385416666666667 0.3571428571428572 0  0.78125 0 0  2.060421048269335 2.314363248763811 0  1.088078737088509 0.8967352118723447 0  1.087825368444708 1.454931510884769 0  2.018308232129541 0.8548495425854904 0  1.943987311736842 0.3246298523011434 0  1.71875 0 0  1.85337849796276 1.144833312386208 0  2.3486328125 2.1044921875 0  1.407588788651747 2.042968789119587 0  2.336309523809524 0.865366648092144 0  2.34375 0 0  2.5 0.15625 0  0.15625 2.5 0  0 2.34375 0  0.1638044648294291 1.242263417405867 0  0.356216654757926 1.032569427322806 0  0.3188217956111817 1.355736727000647 0  0.5924956460852111 0.36112522004736 0  0.6594216488965849 0.1603472116132387 0  1.841804599497131 1.72214349266521 0  0.15625 0 0  0 0.15625 0  2.115898634821499 1.894570904464496 0  0.7821877980253907 0.7129993435924866 0  1.003820447087786 0.4516053462784233 0  0.477562948779147 1.138333049293613 0  0.719493678605015 1.305655360135975 0  0.9772457618587566 2.020350128938537 0  0.8764738248887107 1.826219722709673 0  1.254787875123819 2.339010653832026 0  2.343597354852534 1.249982759769001 0  0.78125 2.5 0  0.46875 2.5 0  2.5 1.40625 0  1.09375 2.5 0  2.5 0.78125 0  2.5 1.09375 0  2.03125 0 0  2.5 0.46875 0  1.40625 0 0  0.46875 0 0  0 0.46875 0  0 1.40625 0  0 1.71875 0  0 2.03125 0  2.5 1.71875 0  2.5 2.03125 0  2.005424054645407 1.653223486966518 0  0.1538730573856537 1.559850281736677 0  2.33984375 2.33984375 0  1.166539506212474 1.922878979538754 0  0.3914885633949916 1.65887232812171 0  0.5795503163042564 1.766243562569382 0  0.399533125920212 1.946786875081388 0  0.7866324979014098 2.127719094551316 0  0.3654683023546834 0.1495701132219454 0  0.1527388747131078 0.6116379440619215 0  2.013737577140188 1.391056634712135 0  1.17635437372994 2.213329084238133 0  1.737118141866284 1.010577140843115 0  2.200707118087222 1.164723314085963 0  1.697018908736685 1.993548551451517 0  0.5387621649009668 0.6070503962352419 0  2.032805785855952 0.5330427622570983 0  1.082699501358059 1.667818725183932 0  1.503819781540653 0.5468420196858188 0  2.015409142866072 2.175941657590429 0  1.752057611265444 0.869642097111018 0  0.612251684107783 2.356045720700959 0  1.902817102342857 0.6607642211999982 0  2.159616561739693 0.7867739969338844 0  0.5120038350106624 2.197302352398502 0  1.888200216011548 1.919501662489862 0  1.495909909726654 2.16028358757309 0  0.489139876703609 1.443203008943564 0  0.8819175670410521 0.3301172743913011 0  1.882591144370812 0.8155965192707721 0  1.133979796994841 1.172526771862882 0  2.206217447916667 2.084147135416667 0  2.20361328125 2.36279296875 0  1.395746985657004 1.556054166359645 0  1.704383111516207 1.734750450338683 0  0.9575737847222222 2.36274223823052 0  1.035150984253136 0.1302833343179028 0  1.383966125325753 0.7651479963479179 0  1.64003252158672 0.6824316405528895 0  2.22550785055421 1.487078576356817 0  1.760964431499756 1.48495222505201 0  1.276460980673788 2.004207003584658 0  0.1341477688427096 1.828777507920502 0  1.542261434180652 1.155296658359034 0  1.334627911613854 0.9696897472490321 0  1.30794231473696 1.119420615785191 0  0.7028260459857245 0.4438906910721139 0  1.625757433094055 1.84268057552138 0  0.9818707849053143 1.165603626132254 0  2.0086489901463 1.243134585689553 0  1.934584460420609 2.374094051915812 0  1.798434376789567 2.38671361912528 0  1.206314791201715 1.382064292497919 0  0.6333752893366955 0.7023738550008095 0  0.7796219811205605 1.42573253164258 0  1.564399711917382 1.026040828857629 0  0.3385416666666666 0.4889012896825397 0  0.1041666666666667 0.390625 0  0.989112246382566 1.543537365516289 0  2.025724425454636 0.9846960595520872 0  0.6602885475034063 2.086117390485779 0  1.607130551925032 1.267198646640915 0  0.1317864544877056 0.8896173683400176 0  1.755387840017567 2.230364320056445 0  1.301540702984401 0.1216289692748247 0  1.433170657577442 0.3331052752740999 0  1.500459610550388 0.113513924782439 0  0.6494291520606965 1.029586599619295 0  1.010146149868299 0.794897284196169 0  0.3700844198238017 2.235390157870766 0  0.3360891767780704 2.36656279435396 0  1.876856241037701 1.437150669863757 0  1.778674102957329 1.245979347269706 0  0.5472829890977179 0.1005517127039925 0  0.4669074189005698 0.3416784232954367 0  1.472765289289269 1.850899166481903 0  1.555853593327178 1.608452097912802 0  0.6708955559113426 1.646561631116984 0  0.8164699620322933 0.5924479455478063 0  0.3167738989468366 1.758696809749795 0  0.2788007305565096 1.605499483471246 0  0.7821720982350511 0.181524936294752 0  1.376812251214195 2.313340247908297 0  1.785652202614777 0.5962261755537186 0  1.761467296310972 0.4679567244718574 0  2.2265625 1.8359375 0  2.3828125 1.9140625 0  0.5279531607054191 2.071552361614785 0  2.397573269551114 0.234375 0  2.383578172599618 0.3589298466020009 0  0.1024267304488855 2.265625 0  0.1164218274003825 2.141070153397999 0  0.2696857594953064 2.135405441512016 0  2.164961300137334 0.1375322943529536 0  2.137757548369486 0.2724194778647587 0  2.238873711826398 0.3626419179496562 0  0.1001414910226386 0.234375 0  0.2176339285714286 0.3478422619047619 0  0.2503620791333544 0.1061694061057066 0  2.336445461915368 0.1250451055247424 0  0.2154004640409726 2.3918124
[...]
<PointData  Scalars="f_16-3"> 
<DataArray  type="Float64"  Name="f_16-3"  format="ascii">2.1924688126976239e-04  -1.5632581870373879e-09  -2.0276121729953865e-10  2.5684480656621968e-04  -8.9854411067762779e-10  3.7736481496432433e-07  2.3896868192196583e-04  2.2645904429912685e-04  2.9207779997550865e-04  2.1381532098025988e-04  -1.3569236765948305e-09  2.2010372038316445e-04  2.2636729418528610e-04  -1.3421558033150355e-10  -5.1890084306240704e-10  3.8327497153478718e-05  3.7700481012963732e-04  1.0361116254018182e-07  2.4879388597948273e-04  2.2264108217501562e-05  1.0435137328423861e-04  4.9902884655480661e-04  4.2950759866162275e-04  1.3352908369774024e-04  2.8038796072257257e-04  2.2874267193481450e-04  2.2999690493551826e-08  2.3667892177572160e-04  8.3429519156770488e-08  -3.6470093098272376e-10  2.2593063869636167e-04  2.5003108045894586e-05  4.8681733938609416e-04  4.1103585387796510e-04  2.0874230487878695e-05  4.7792391367928083e-04  -5.1720884019396736e-10  3.4769319736299557e-04  2.6382471914831096e-04  5.8983420422933257e-05  1.3326242919773495e-08  5.5552352709867333e-06  -1.5727116728355102e-09  -2.1336083691327194e-05  1.3651660153168912e-04  3.6878805180335858e-04  2.4841441943860377e-04  5.1410966232532166e-04  3.4301433385535178e-04  -6.9668656532871434e-10  -1.1103693178872683e-09  2.1899252950821675e-04  -3.4144831096535877e-10  6.8965123890605204e-09  2.2630856565981008e-04  2.2646237099640070e-04  2.2181481245065723e-04  -1.8320815488802483e-10  2.2522796549368762e-04  2.9729351087190106e-04  5.7776613755515192e-06  2.1566258132094386e-07  3.0925151757552505e-04  3.0957410082339186e-04  4.8123269465059324e-04  2.2701018828010839e-04  3.0107671428339686e-04  4.2644416893754163e-09  2.2559463334228774e-04  1.1695336992781723e-06  4.4963296950883265e-05  6.8158897410978499e-07  2.2647152142340270e-04  1.2474046695442336e-03  1.9816566053924662e-07  8.4521106409589567e-05  1.1799550664100726e-04  2.7311786863234267e-04  4.0240508097183866e-04  -7.4771854256150227e-10  9.1063359669404844e-07  6.4309635838253771e-07  2.3960967917559573e-05  3.8819485000414989e-06  2.5855231714692451e-10  -2.4153286440434216e-10  -2.8712390293658753e-10  2.2780288724679178e-04  2.2610663345676150e-04  2.2432721993089099e-04  -4.2197553562898673e-10  5.5031788905626470e-10  1.8373871952088105e-04  1.8771651319299674e-07  2.3808984549497533e-04  3.5552939109344196e-04  2.2659603477702560e-04  3.9636654034143887e-06  2.8793437307106108e-04  2.2339794950487792e-04  4.0105694135192388e-04  4.3477986651366192e-04  2.4058769876276212e-04  1.4229303977388345e-04  1.0371894685846534e-08  8.8738422031048368e-04  2.2538856674429020e-04  5.7331937189437118e-04  3.0566415449188199e-05  3.4165300245524589e-04  2.3624186741581999e-04  2.2642182924085763e-04  2.3842138384383023e-04  5.5135256940164873e-04  1.9843135024721374e-04  1.6943369558731178e-05  1.5925013280843769e-04  1.6129777072209561e-06  3.8255302432772473e-04  8.6802651665779797e-05  2.8736062521364920e-04  2.2503030458928379e-04  3.8951649908039785e-04  4.8131985805496428e-04  1.3902359352251685e-06  2.0345890284371510e-04  7.2211941370978650e-04  2.6115684476121776e-04  3.2851592552310085e-04  -6.6506069752480728e-10  4.3314625189565320e-06  2.2825162329736785e-04  3.1949470632056538e-04  5.4012043784053364e-10  -5.2206198030969940e-10  4.5940506531041845e-04  4.2131799869259763e-04  3.6601377018143316e-04  3.5157489361587857e-04  5.4066255137490929e-04  1.2079073238830998e-09  2.3701741756835911e-09  -1.0010799559820308e-09  -8.3518277204517722e-10  4.4965956787756574e-05  1.6120119962373394e-05  3.1483870168799645e-04  3.7290089381577612e-04  2.2640434604040942e-04  -1.9677958281389852e-10  9.9995905267142763e-06  5.7025710169733970e-05  -1.2120742001446071e-09  3.7435509103826600e-04  1.0348292506283139e-04  4.9974840910479751e-04  8.7893315374777956e-08  -4.5759814330568565e-10  -6.0878514799883661e-10  7.7740774593125275e-06  1.5344003517953368e-04  3.9145363069792444e-04  6.6194695343531975e-09  -2.6895328922417972e-10  -1.9625604939515903e-10  2.1918744835573798e-04  2.2263144182303502e-04  2.2718894573658577e-04  3.2782733527722595e-04  2.3118415559945896e-04  5.6447614284514448e-06  3.5161487433771645e-09  2.1014140400926412e-04  -1.5081609457008553e-09  -5.4923463304355005e-08  1.5840058107477253e-04  1.5391659305078319e-04  7.9893263685098129e-07  3.6795677118982799e-04  4.4407031301539076e-04  2.5790877320732287e-04  2.7266423016946979e-04  2.5961690119574997e-04  9.0428765419741571e-07  2.2053058539643798e-04  2.1924269998264381e-04  1.5702038577978967e-06  2.2683418643023207e-04  4.0751089590507872e-10  5.5919562549892512e-08  -4.3205157542866754e-10  -1.7174748709412817e-10  -7.8714962106026985e-10  -1.4936284202470906e-09  1.4850973408306824e-04  2.2646372080617673e-04  2.2644884609590064e-04  2.2612265341248733e-04  1.6172612647847279e-05  7.9559406422297077e-05  8.9629461008710839e-05  2.2648808313411887e-04  2.6810321005597051e-04  3.4680564297039524e-04  2.2752354164144403e-04  2.3166850876516905e-04  2.2640885168021072e-04  2.2974990130092480e-04  1.8342509723379471e-08  5.7199867995924092e-04  2.0765980709900410e-05  2.6554425709866554e-04  4.8343296378952523e-06  9.5115449297974848e-07  4.1354247586206089e-04  3.4333829546776348e-04  -1.5110353576908235e-10  4.2895306418048139e-04  4.4899970350542496e-08  3.5165087282669293e-04  8.3472816168515924e-07  2.2327382199695850e-04  9.6181223695558589e-09  8.9099893704264187e-09  2.2539620990793307e-04  2.9990722614212361e-04  3.7698542062903191e-04  2.4780532655281352e-04  1.7508468040022975e-07  1.3624296417746114e-07  3.2930900233614919e-04  2.1427098765813341e-04  3.3527871870408897e-04  3.9622369897576157e-04  3.0643864723801662e-04  2.2726472956966526e-04  -9.1879174973422162e-10  3.9303572049314447e-06  1.4769883757326819e-07  1.3096142326818848e-05  1.1694864950919215e-04  3.5830472347694750e-04  2.2641678077626177e-04  4.9515670576292522e-05  4.0270369280602014e-05  1.3269423840100324e-04  1.1706153188213826e-05  4.0106448944799442e-04  4.6938139947923414e-04  7.6485627313265502e-06  3.9759874426515931e-04  3.8483916290646587e-04  4.3059406355386244e-04  3.6812346372173477e-04  3.9829935631341656e-04  1.6522847780275830e-05  5.4376731951142102e-04  1.4162996076502424e-03  4.4900698764760384e-04  4.7316135859605527e-07  2.2723573358854752e-04  7.3378187992659974e-05  2.3832102141971620e-04  4.0876502500177052e-04  -8.5466460987342336e-10  2.8857791728874978e-10  -7.3278835170468720e-10  6.0888643721274647e-04  7.5162266161123004e-05  2.2490378843106871e-04  2.2253997212140413e-04  5.3318043822652254e-05  2.7043332327157057e-05  -6.0353694572957796e-10  1.0825983205976825e-05  4.4597114141470582e-04  3.2076831997271052e-04  2.5551814870189551e-04  3.9698725752990025e-05  2.2655440631522345e-04  2.2668039924921297e-04  3.6413608803512971e-09  2.9161398817303925e-04  8.4257581530798981e-09  2.9303916052454711e-10  8.7015036077353147e-05  6.6044041817376771e-05  2.2628547924503182e-04  -2.2117827141963503e-10  -2.2440483388707295e-10  2.2433585276957296e-04  2.2566190621301131e-04  2.2569410746225413e-04  -3.4784409406140101e-10  -3.5973039885227990e-10  -3.0292114958318734e-10  -3.1000642883495978e-07  1.9909773431091928e-04  -2.2434681255961256e-09  -2.5846565167988259e-10  2.2171162477511639e-04  2.4482892613078100e-04  -6.0156036470856857e-09  -5.9713814265472312e-10  6.2826175405197838e-06  5.0974924333260779e-08  2.4598627431005146e-07  2.2623997663813095e-04  1.7410729361977469e-04  5.7781948404133027e-04  2.2630075201862410e-04  -4.8045928705392393e-10  -1.7275456475968678e-10  7.5140770655383873e-10  1.9553211336431313e-04  5.5131150135597976e-05  2.3503409065859881e-04  2.2720466345878553e-04  2.2601065836902031e-06  3.2419684943893469e-05  1.6294348437310613e-04  -4.4536575102142250e-10  6.5862302820574763e-04  2.8849433208237145e-04  3.2959210028779529e-04  1.0880073575472257e-09  -1.0944133506874363e-09  2.3746651131000791e-07  3.0426547091303742e-04  2.3244591861765594e-04  2.7926264840352917e-08  2.4600470419968009e-04  3.7614604376182180e-04  1.0116732912186080e-04  2.3668305788948933e-04  -3.7585715630902508e-10  2.3807449906317451e-04  2.2722047707834163e-04  2.2649081413226197e-04  4.6296828787495376e-06  3.3095428618576227e-06  5.0843671634157354e-04  -6.5096955238740572e-10  6.7824091799522095e-07  3.7838867089086848e-04  -5.5856313365736560e-10  1.3418741758799754e-05  4.2460936945425831e-04  1.0650460408564665e-04  2.2259138752808339e-04  5.3037911993045422e-04  6.3409183695505868e-04  5.5905279614749460e-04  1.0279099153397049e-03  5.7840920304407038e-10  2.2645919459592139e-04  2.2655521942734172e-04  1.1666178434656792e-06  2.3453209344182151e-07  2.5842628176797573e-04  2.2147118267315939e-04  2.6212122912832545e-04  5.9894205217459474e-05  1.2619444718749274e-05  1.7529239589696523e-07  3.7849288762322538e-04  -6.0772367236231622e-10  4.1624642203332755e-04  2.3895560028590793e-04  2.6299149476211872e-04  2.5466670889421293e-04  2.2646875781317510e-04  1.9952836121640064e-06  2.9441439827040039e-04  4.1003128550640562e-04  3.2295429609976035e-04  7.0713099803243237e-05  2.9173427853072066e-04  6.4759912052217623e-04  8.7823349058767326e-05  3.1453931134966195e-04  2.0836069583494654e-04  2.8847990281565509e-08  4.9438430505313602e-04  3.7490487786075491e-04  4.7676252362495729e-04  2.9427407318756427e-04  2.5311000871067424e-04  4.4722776375547116e-08  3.9416989867856542e-04  3.9674596186469340e-08  2.4433549324423251e-07  2.2848780199568797e-04  2.9727855956495833e-04  3.6880492146985135e-04  1.8284914343964827e-04  2.6170418190220226e-04  -5.8515376679634162e-10  3.3107564000141376e-05  5.1472770095005807e-04  7.3831749866551714e-04  2.2770569284430369e-04  1.9782955530656629e-06  4.0497316895980904e-07  4.3998645408499358e-04  2.9743662708997752e-06  3.3044994720092199e-04  2.5904101068987276e-04  6.8240978554203499e-04  -2.2852678824774855e-10  2.9128018843708178e-06  9.2221181457273466e-06  3.3332930545098149e-05  -3.0744589484425846e-10  2.2930204954209920e-04  2.3390884116458025e-04  5.2211910168222872e-05  6.9375095410044972e-04  4.9919143557778755e-04  2.1953463101972781e-04  3.9476769956707595e-04  4.2889021051489883e-04  2.4891687220524543e-04  3.7566483370879796e-04  2.9761117533483338e-04  2.7545524795263908e-04  2.3042837539553310e-04  2.1551125184001945e-04  3.6774433037819744e-04  3.2715607846592153e-04  -1.2705033544230133e-09  4.7894613892539523e-04  2.2316814436704725e-04  2.2488924303454603e-04  -4.1344949542360775e-10  -6.2785272796742080e-10  2.3093463017583371e-04  -7.9644412524534649e-10  4.1156065284724219e-04  -1.0054968597753284e-09  -1.5548381660412970e-10  2.2644783134160499e-04  2.0642206084658623e-04  -5.3116972914197204e-10  3.2259242093000051e-04  5.5691894764626484e-04  3.2266054858758021e-04  8.9917254930653525e-07  1.8929016706844179e-08  -3.0515981747397563e-10  4.5810321804491585e-04  2.2773472321243167e-04  3.3058780493581453e-04  1.0825067719951625e-04  1.4768930594495422e-08  2.2345787710654008e-04  2.9031714651492380e-05  7.8160922091220699e-04  4.7798725783180216e-04  2.3662065179087051e-04  4.4603583126277119e-04  6.7592590724176175e-08  2.3044496731194377e-04  -3.8265254738135861e-10  -4.0228611664763219e-10  2.4423488377717315e-04  2.3032138707481542e-04  4.8986796489474012e-04  7.1531740220262138e-09  7.0600974039846016e-04  -4.6800012666457016e-10  1.6801975458072899e-06  1.0134961536741557e-05  1.3082724123655701e-09  4.5521918676523949e-09  -3.1610954673688510e-10  4.4960896031745321e-04  4.0565698608728909e-04  4.6433192329553194e-04  4.1754109386122736e-09  2.1908576411640130e-04  3.9150946809169177e-04  3.3158695452306219e-04  2.2443972630644166e-04  3.9218627903760101e-04  3.1742111598814012e-04  2.1556925387367217e-05  1.5972595473371257e-10  5.1746753716222190e-04  2.2605536869753948e-04  3.0198176036707350e-04  5.0511018488810540e-09  6.1830423603954576e-05  9.7926895216641618e-06  2.0488822531450999e-09  8.4464433794514873e-06  1.0473136742682217e-05  4.0689601699592313e-04  2.2634990076337351e-04  2.5608495312736188e-04  1.6616395059241622e-09  2.3088214832880360e-05  2.1256969224806314e-04  -1.5333300278123383e-09  -1.6155837061794319e-10  -1.9719830050344079e-10  2.2838665746122212e-04  -1.0005336917806369e-09  2.2652694111299513e-04  2.2644531916752648e-04  1.5176707955154896e-06  3.9104616525737119e-04  1.2363146956403700e-07  3.4331296325384775e-04  4.3367441955779651e-06  4.3122070770211751e-04  3.8880629073917810e-06  2.2642219685343600e-04  2.2655418549115197e-04  2.2119960552326572e-04  2.2169885031593311e-04  -9.8548363764008067e-10  3.6074835077389411e-08  1.8550173532641843e-04  2.6156019365426443e-09  2.2677370800065473e-04  2.4704614633508327e-04  9.8092523919487599e-06  3.4946554806496379e-06  1.3391085843340240e-04  2.2613703674041042e-04  1.0518329338224591e-04  3.0648251838424414e-10  -9.1611265114756035e-10  -1.5483771963955964e-11  1.2483349463696667e-07  1.7760335310249622e-08  3.4728798666400023e-07  3.9562833285272257e-05  7.6938260412072197e-05  2.3840701572367999e-05  -2.0093157480817235e-10  2.6345484949817394e-04  -3.0408469895728476e-10  2.5882464447040461e-04  3.0789164213555406e-04  7.2349359632297561e-06  3.9136785198847396e-04  3.6005490389055101e-04  4.4044889049075475e-05  1.4273209338400855e-04  2.1357490346227912e-04  1.7612969597309106e-05  2.3715364188536983e-05  -2.6150848840698958e-10  2.2532115890835312e-04  3.0212135602186767e-04  6.6278720382070895e-07  1.4484835041426089e-04  2.3369060463249427e-04  -3.0190992536180660e-10  1.8156289184251758e-05  4.0759933055555122e-04  7.7833996277269679e-05  3.5309941995221954e-04  -2.2107999832237685e-10  1.6063851276748123e-04  2.2615968641167224e-04  -6.2882373098161265e-11  2.2327794912337212e-04  -7.1345846534731786e-10  2.9167569567569208e-08  3.6562772423360580e-04  2.1270123679881364e-04  3.4373646351239522e-04  4.0340171900596198e-04  1.0482740377512738e-04  3.8424033068385096e-04  2.4786772444948660e-04  4.6529708855096050e-04  1.4078530753777083e-06  5.6771040779420166e-09  2.6596732311424010e-04  3.9949269174743921e-04  1.0226790066155060e-08  5.8884607328349211e-07  5.5246568555352828e-05  3.3558340586154134e-04  2.8355160537944812e-04  3.5307421910167516e-04  3.6642517355529815e-04  2.4191716036380467e-04  9.5809287231836233e-05  3.6570097966197986e-07  6.6351142380864461e-06  5.0551939573838850e-07  4.7941117674423185e-07  2.2743177096221526e-04  2.0272573294210416e-06  -1.1182342042110920e-09  7.1056890508545794e-08  3.4882277224185030e-05  1.4932372106457345e-06  8.5552493324331257e-08  1.9046532806228745e-08  4.2771800009756687e-04  4.9261968157936155e-04  6.6110621443303191e-05  2.3011031616088830e-04  5.7987506256117721e-05  2.8876734994619620e-04  5.1936904873735352e-07  -1.0604493084808764e-09  1.2998359748523541e-04  -2.5861129392620296e-10  1.6243518022041295e-04  4.0212984115288236e-04  3.4537630434963788e-04  5.4421080523181967e-05  1.5164437440892166e-04  2.5084252485390146e-06  2.8157159747206037e-04  2.4736339715282599e-04  -1.5446480741292498e-09  -1.9541397990224247e-09  2.1768437161283905e-04  -8.4038791737090669e-10  2.4926941358870375e-04  -2.7274685170640829e-08  2.2572530263816816e-04  -1.9492738244172664e-10  1.6779107658933834e-04  3.1807815047099321e-04  2.7274272774369933e-06  5.5881601886642376e-05  3.4277929724728476e-04  7.7766462609751058e-08  3.8708777072918245e-04  -1.5217925249507298e-09  -3.2387332693049734e-10  -4.0264605977582498e-10  4.9119824283490640e-10  8.3107942826516154e-07  8.4951915332925258e-04  2.2656261005636830e-04  2.3234142186390744e-04  2.3393579738534184e-04  2.8903320617973822e-04  3.3295203988817915e-04  -6.0226137917666484e-10  2.5835217874979697e-04  5.0881867700056733e-04  4.5289888221556831e-04  4.0638639853522833e-05  1.9270752763720493e-06  5.5821507754184556e-07  2.2577687512892924e-04  2.2653342494708802e-04  2.7281226142146991e-04  7.6279859045576020e-06  -9.4676761529591482e-10  3.4556066891535016e-04  2.2100471881295015e-04  3.8324822423396575e-04  2.2092014219966992e-04  2.1934581196410711e-04  2.4870542790204442e-04  2.2645836456334343e-04  2.2035376478859328e-04  1.0065955936684131e-05  -5.5775601451447556e-10  -6.5393828986502103e-10  1.4973496564833600e-07  7.4800588463930250e-07  3.1971953448479385e-06  2.2636959008268156e-04  2.2644842263703645e-04  2.2646300559766991e-04  2.3216016937903188e-04  2.2275295654430624e-04  -1.1602471819978193e-09  -4.7640935424197782e-10  2.2629601627803181e-04  2.1902684370536820e-04  -1.5615282406384016e-09  2.2407973573758925e-04  -1.8882054385447546e-10  -1.4398100991412174e-09  -7.4620206847925004e-10  -7.7282324811071894e-07  1.0306899724432436e-06  3.6288840089160194e-04  1.6931420659942658e-04  2.3650303553339873e-04  2.8202279912357140e-04  2.2646375315070981e-04  2.7797743665038815e-04  1.9945629115182808e-04  2.4766422933023804e-05  1.0496377210179997e-04  -1.7743665178156509e-10  3.9006754663374381e-08  2.8595210852643731e-04  4.1596897305298520e-04  2.2227943900752310e-04  2.2957403428433197e-07  2.4689981050563680e-04  1.2706174040152599e-04  5.6567746725968916e-04  2.6481849550550148e-04  5.5950052146859623e-05  -1.4149045019588813e-09  4.4230235253474212e-04  2.9394785130583352e-04  2.2619191949722141e-04  5.1738370271729164e-04  1.7288166559279742e-06  2.4468022272686846e-04  2.2652191360585775e-04  2.2646475009021201e-04  2.2649855367645015e-04  2.2675429676881391e-04  4.1447761005737214e-04  1.0553166998934790e-03  4.0254696691318497e-07  4.3303062098289178e-04  2.7846156236413847e-04  2.4919745023055202e-06  5.4364561883567134e-04  2.6270171515357137e-06  2.2663556692493334e-04  2.7294770508769656e-04  3.9906260571944573e-04  3.9526383106429922e-04  3.4875910810714056e-04  2.4800777600877391e-04  2.9441852880469717e-08  5.9607208459628116e-04  5.2548258512685644e-04  -4.2199611190232126e-10  1.0271405189999587e-07  6.6120302274996789e-04  3.0513630812619473e-08  2.3731612127873268e-09  4.1299351825689677e-04  1.1776428908381702e-05  5.0429488166518230e-05  4.8749024583530697e-05  4.1962569904170529e-05  2.8191280757765111e-05  2.3753166128807400e-04  2.4244045271855290e-04  4.0629259805844933e-04  2.8615947097746430e-05  1.5423918748149890e-05  2.2816300043267683e-05  1.0217439160457657e-05  2.2685785844244309e-04  2.2647245991879142e-04  3.1916895702709992e-04  2.2848628133300655e-04  8.1732608656418146e-06  2.2664427705817319e-04  2.2639308721761816e-04  2.9856930296741683e-04  2.2313443893936268e-05  2.1603255679733898e-08  3.3195503559712414e-09  2.2602973885368181e-04  3.1127550148963803e-04  2.2747066143627212e-04  2.3041256619155787e-04  2.2736509074609696e-04  1.4297757532402266e-04  -3.3433630095995733e-10  2.4840265607728126e-04  2.6208076556083189e-04  2.2533383032588344e-04  2.2548660618057877e-04  2.2474860717658577e-04  3.5984732998604337e-04  1.8842497101890471e-04  -6.1990950745008380e-10  1.8867678203528098e-05  2.3555238510084735e-09  6.3182106520540831e-06  3.7999195905210763e-04  3.4545492314455107e-04  2.3021646520249498e-04  1.0606742064632638e-04  -4.4042107588094833e-10  1.7625557113055005e-04  -7.8957457907183359e-10  3.8909015043676388e-04  7.2981222633540207e-04  -4.9130144843060997e-10  3.0948240178832681e-04  3.8300133359022662e-04  7.7292450202237528e-05  4.9005965755477685e-09  2.2070147388943582e-04  2.3633738788251572e-04  4.4067645993824497e-04  1.6864701657932682e-04  2.5751112259158487e-04  4.2741697154488243e-04  3.9975826182689773e-04  2.3649620825577793e-04  -2.5331722858567586e-10  1.4681232439157202e-07  4.7024016116008958e-04  2.6951662640385031e-04  2.6349575112754735e-04  2.2454906889958975e-04  2.2153439852363912e-04  2.4236323752951885e-10  2.2047614612721525e-04  8.1355648263735945e-09  -2.8394397919035360e-10  3.6207682367163927e-04  2.2590236069559098e-04  -6.9808554971883670e-10  2.9608862106374927e-04  -3.8867203627419029e-10  4.2670006436203