<?xml version="1.0"?>
<VTKFile type="UnstructuredGrid"  version="0.1"  >
<UnstructuredGrid>
<Piece  NumberOfPoints="6486" NumberOfCells="12696">
<Points>
<DataArray  type="Float64"  NumberOfComponents="3"  format="ascii">0 2.5 0  0 0 0  2.5 0 0  2.5 2.5 0  1.25 0 0  2.5 1.25 0  1.25 2.5 0  0 1.25 0  1.25 1.25 0  0 0.625 0  0.625 0 0  0.625 2.5 0  0 1.875 0  2.5 0.625 0  1.875 0 0  2.5 1.875 0  1.875 2.5 0  1.770833333333333 0.7291666666666666 0  0.7291666666666666 1.770833333333333 0  0.9375 0.625 0  1.875 1.5625 0  0.642361111111111 1.163194444444444 0  1.341594827586207 1.883979885057471 0  0.46875 0.46875 0  2.03125 2.03125 0  0.3626104797979798 1.513178661616162 0  1.381740196078431 0.4564950980392157 0  0.9375 2.172619047619047 0  2.172619047619047 0.9375 0  2.096354166666667 0.4036458333333332 0  0.4036458333333333 2.096354166666667 0  1.684027777777778 1.163194444444444 0  0.3418803418803419 0.8693910256410255 0  1.642742622813391 2.162164207604464 0  1.275619849389031 0.8465650753054845 0  0.9136284722222221 1.434461805555556 0  1.732437511238546 0.3406962303960658 0  0.9714402568595876 1.029779313093998 0  1.52281746031746 1.485615079365079 0  2.1875 1.71875 0  1.06819722569879 0.2997236128493951 0  2.136114211309524 1.303478422619048 0  0.3125 0 0  0 0.3125 0  2.5 2.1875 0  2.1875 2.5 0  0.3200021620376328 1.192323085056694 0  0.6738456129277992 0.8304377375553881 0  1.757891808928991 1.861952730357003 0  1.5625 0 0  0.9375 0 0  0.3125 2.5 0  2.1875 0 0  2.5 0.9375 0  0 0.9375 0  0 1.5625 0  0.9375 2.5 0  2.5 0.3125 0  0 2.1875 0  1.5625 2.5 0  2.5 1.5625 0  0.7448220909826522 0.3003573636608841 0  1.027298850574712 1.871151477832512 0  1.331260495098891 2.197262878816185 0  1.207917681892289 1.582765010956622 0  0.4339993447432606 1.801186844743261 0  0.6337298768939392 1.443093039772727 0  2.049851190476191 0.6826636904761904 0  0.6584821428571428 2.219122023809524 0  1.89575676467455 0.9798457973793544 0  1.437570562095628 1.059380588255917 0  1.502090052505845 0.6987070896496241 0  0.2040860661083546 1.705323965099331 0  0.2083333333333333 0.46875 0  0.5070952039991439 0.2211150679997147 0  0.6916302856529919 0.5813591430410241 0  2.265625 1.953125 0  2.2265625 2.2265625 0  1.886424081252096 2.243391360417365 0  1.40625 0.202164758520858 0  0.2269345238095238 0.2269345238095238 0  1.152730869673694 0.5225850378741401 0  1.885631899587912 1.312095130148776 0  1.614808884009367 0.9049784971014416 0  1.890095442220658 0.5126535558463003 0  2.323168682795699 0.46875 0  2.268811725689575 0.2304742875213018 0  0.6002389442105756 1.967426444210576 0  0.1768313172043011 2.03125 0  0.2311882743104251 2.269525712478698 0  2.03125 0.176831317204301 0  2.280262553344767 0.6954945504579233 0  1.979219539285994 1.809922269642997 0  2.336309523809524 1.09375 0  1.09375 2.336309523809524 0  0.9314042474388009 1.662973812215543 0  0.1634067999087722 1.40625 0  2.337090640094896 1.40625 0  1.141616997467638 2.069311773587991 0  0.46875 2.338939559681489 0  1.542440307908715 1.734944797244472 0  1.556713687786879 1.956977865354753 0  0.8264238995344066 1.975424467820646 0  1.466326331454725 1.275271369760862 0  1.655675324257095 0.5444159974393489 0  0.3385416666666666 0.6479255698005697 0  0 0.78125 0  0.5236073939200119 0.984090461540625 0  2.091665741047893 1.519793517904215 0  1.71875 2.5 0  0.5356538886262603 1.623137930505009 0  0 1.09375 0  0.1932884281517095 1.015625 0  0.8569313582417669 1.2198915584249 0  0.8876981284879677 0.8329884081524883 0  1.115618488474214 0.7219586973356271 0  1.186950366204949 1.043465130075318 0  2.057459118787237 1.110823087309335 0  1.830651283878689 2.049810069572418 0  1.689107969301489 1.367247437031697 0  0.4921048768039656 1.298643370653124 0  0.8213975694444444 2.336309523809524 0  2.03125 2.5 0  1.049729400480002 1.283723261332814 0  1.308101375801673 0.6489479469700392 0  2.5 2.34375 0  0.4968777175037714 0.7562964879736076 0  1.40625 2.5 0  1.501347663534097 2.307027627307738 0  1.602813712048603 0.1926218191360736 0  0.8393082906308107 0.463778306132633 0  1.682663349152719 1.598471865581041 0  0.7774174680851571 1.560004941327907 0  1.554204170364662 0.3898593897892066 0  1.842184459051087 0.186443880058197 0  1.358107417651776 1.696381759610015 0  1.18859291992392 1.77598670078022 0  0.1875331222687418 0.7609599743339348 0  1.339536743965101 1.422080365801479 0  0.7788179348750389 0.9955343414928611 0  0.9062978492805438 0.1919636509126373 0  1.256007360640958 0.3160320559396114 0  1.09375 0 0  1.174986727221844 0.1594990293443933 0  2.34375 1.796875 0  2.318026474511116 1.589177949022232 0  2.34375 2.5 0  1.672742954892153 2.332882724550692 0  0.2683637361947215 1.874801596909639 0  2.174770749820102 0.5581009131310781 0  1.443279522965991 0.8870068372898454 0  0.3385416666666667 0.3571428571428572 0  0.78125 0 0  2.060421048269335 2.314363248763811 0  1.088078737088509 0.8967352118723447 0  1.087825368444708 1.454931510884769 0  2.018308232129541 0.8548495425854904 0  1.943987311736842 0.3246298523011434 0  1.71875 0 0  1.85337849796276 1.144833312386208 0  2.3486328125 2.1044921875 0  1.407588788651747 2.042968789119587 0  2.336309523809524 0.865366648092144 0  2.34375 0 0  2.5 0.15625 0  0.15625 2.5 0  0 2.34375 0  0.1638044648294291 1.242263417405867 0  0.356216654757926 1.032569427322806 0  0.3188217956111817 1.355736727000647 0  0.5924956460852111 0.36112522004736 0  0.6594216488965849 0.1603472116132387 0  1.841804599497131 1.72214349266521 0  0.15625 0 0  0 0.15625 0  2.115898634821499 1.894570904464496 0  0.7821877980253907 0.7129993435924866 0  1.003820447087786 0.4516053462784233 0  0.477562948779147 1.138333049293613 0  0.719493678605015 1.305655360135975 0  0.9772457618587566 2.020350128938537 0  0.8764738248887107 1.826219722709673 0  1.254787875123819 2.339010653832026 0  2.343597354852534 1.249982759769001 0  0.78125 2.5 0  0.46875 2.5 0  2.5 1.40625 0  1.09375 2.5 0  2.5 0.78125 0  2.5 1.09375 0  2.03125 0 0  2.5 0.46875 0  1.40625 0 0  0.46875 0 0  0 0.46875 0  0 1.40625 0  0 1.71875 0  0 2.03125 0  2.5 1.71875 0  2.5 2.03125 0  2.005424054645407 1.653223486966518 0  0.1538730573856537 1.559850281736677 0  2.33984375 2.33984375 0  1.166539506212474 1.922878979538754 0  0.3914885633949916 1.65887232812171 0  0.5795503163042564 1.766243562569382 0  0.399533125920212 1.946786875081388 0  0.7866324979014098 2.127719094551316 0  0.3654683023546834 0.1495701132219454 0  0.1527388747131078 0.6116379440619215 0  2.013737577140188 1.391056634712135 0  1.17635437372994 2.213329084238133 0  1.737118141866284 1.010577140843115 0  2.200707118087222 1.164723314085963 0  1.697018908736685 1.993548551451517 0  0.5387621649009668 0.6070503962352419 0  2.032805785855952 0.5330427622570983 0  1.082699501358059 1.667818725183932 0  1.503819781540653 0.5468420196858188 0  2.015409142866072 2.175941657590429 0  1.752057611265444 0.869642097111018 0  0.612251684107783 2.356045720700959 0  1.902817102342857 0.6607642211999982 0  2.159616561739693 0.7867739969338844 0  0.5120038350106624 2.197302352398502 0  1.888200216011548 1.919501662489862 0  1.495909909726654 2.16028358757309 0  0.489139876703609 1.443203008943564 0  0.8819175670410521 0.3301172743913011 0  1.882591144370812 0.8155965192707721 0  1.133979796994841 1.172526771862882 0  2.206217447916667 2.084147135416667 0  2.20361328125 2.36279296875 0  1.395746985657004 1.556054166359645 0  1.704383111516207 1.734750450338683 0  0.9575737847222222 2.36274223823052 0  1.035150984253136 0.1302833343179028 0  1.383966125325753 0.7651479963479179 0  1.64003252158672 0.6824316405528895 0  2.22550785055421 1.487078576356817 0  1.760964431499756 1.48495222505201 0  1.276460980673788 2.004207003584658 0  0.1341477688427096 1.828777507920502 0  1.542261434180652 1.155296658359034 0  1.334627911613854 0.9696897472490321 0  1.30794231473696 1.119420615785191 0  0.7028260459857245 0.4438906910721139 0  1.625757433094055 1.84268057552138 0  0.9818707849053143 1.165603626132254 0  2.0086489901463 1.243134585689553 0  1.934584460420609 2.374094051915812 0  1.798434376789567 2.38671361912528 0  1.206314791201715 1.382064292497919 0  0.6333752893366955 0.7023738550008095 0  0.7796219811205605 1.42573253164258 0  1.564399711917382 1.026040828857629 0  0.3385416666666666 0.4889012896825397 0  0.1041666666666667 0.390625 0  0.989112246382566 1.543537365516289 0  2.025724425454636 0.9846960595520872 0  0.6602885475034063 2.086117390485779 0  1.607130551925032 1.267198646640915 0  0.1317864544877056 0.8896173683400176 0  1.755387840017567 2.230364320056445 0  1.301540702984401 0.1216289692748247 0  1.433170657577442 0.3331052752740999 0  1.500459610550388 0.113513924782439 0  0.6494291520606965 1.029586599619295 0  1.010146149868299 0.794897284196169 0  0.3700844198238017 2.235390157870766 0  0.3360891767780704 2.36656279435396 0  1.876856241037701 1.437150669863757 0  1.778674102957329 1.245979347269706 0  0.5472829890977179 0.1005517127039925 0  0.4669074189005698 0.3416784232954367 0  1.472765289289269 1.850899166481903 0  1.555853593327178 1.608452097912802 0  0.6708955559113426 1.646561631116984 0  0.8164699620322933 0.5924479455478063 0  0.3167738989468366 1.758696809749795 0  0.2788007305565096 1.605499483471246 0  0.7821720982350511 0.181524936294752 0  1.376812251214195 2.313340247908297 0  1.785652202614777 0.5962261755537186 0  1.761467296310972 0.4679567244718574 0  2.2265625 1.8359375 0  2.3828125 1.9140625 0  0.5279531607054191 2.071552361614785 0  2.397573269551114 0.234375 0  2.383578172599618 0.3589298466020009 0  0.1024267304488855 2.265625 0  0.1164218274003825 2.141070153397999 0  0.2696857594953064 2.135405441512016 0  2.164961300137334 0.1375322943529536 0  2.137757548369486 0.2724194778647587 0  2.238873711826398 0.3626419179496562 0  0.1001414910226386 0.234375 0  0.2176339285714286 0.3478422619047619 0  0.2503620791333544 0.1061694061057066 0  2.336445461915368 0.1250451055247424 0  0.2154004640409726 2.3918124
[...]
<PointData  Scalars="f_49-3"> 
<DataArray  type="Float64"  Name="f_49-3"  format="ascii">-1.5704388112434569e-05  1.2770967749167907e-09  1.3876244694221219e-14  1.3586433704626024e-05  4.1158185500310501e-10  1.8942183504710592e-13  -1.8238136112723469e-05  -9.9997181658405791e-05  2.3210107795586094e-04  -1.0069593767096614e-04  8.8036696244628826e-10  -1.9674602062567249e-05  -9.1825376711452095e-05  1.0174944445059139e-14  1.7046473745434561e-11  3.1622412399240432e-07  3.2444327078007994e-04  7.6404038455173872e-11  -8.8574075698431203e-05  1.0766159687479584e-08  1.7446233027236479e-05  1.4950561058572609e-03  1.1661708119121868e-03  3.1942272006696646e-08  2.5882261129151835e-04  -9.9960063238417051e-05  3.4886831073149854e-10  -6.9976537343373622e-05  2.9941769998260957e-12  2.5319727428874594e-12  -7.5298228521620013e-05  1.6314175024854539e-07  1.4532944522659167e-03  9.8061021324537321e-04  1.3487357560599594e-08  1.4379483341284164e-03  5.8735495483313101e-11  2.6386511744919849e-04  2.2288463981973416e-04  2.9974049205112508e-06  5.7921815355288716e-10  2.4731361702311168e-09  1.0600443491526121e-09  6.5573230622675126e-07  6.5116739970778595e-06  1.4149964963519615e-04  -8.6639896591826575e-05  5.8383702945808671e-04  5.6603391369327010e-04  1.2926583993399620e-10  6.5223197454712941e-10  -1.5398216883166541e-05  5.1097959775550345e-13  2.2171989616978123e-14  -9.9977853582347567e-05  -9.9797353668971205e-05  -2.1217683897546006e-05  8.6578014367520744e-15  -5.7765860077691637e-05  9.0948728854457457e-05  1.9877269298543822e-09  7.9491501786455728e-10  9.1307769451525077e-05  1.3763580793507715e-04  1.5234615513510308e-03  -9.7944620896468784e-05  4.9417614843862270e-05  6.3335995805825613e-12  -5.9267999137895872e-05  4.7651261185288143e-11  7.4849794725324176e-07  2.5604365383995423e-10  -9.9054594795804830e-05  1.5474798879077747e-04  9.4347274621702978e-10  4.4307775109907089e-07  1.5032488678680032e-05  1.1407553208238009e-04  7.0292364897140650e-04  2.8160557208997437e-10  1.6151003676578815e-09  5.3261074867274292e-10  1.6221227736994749e-07  4.3161769087931491e-10  2.1761541730756820e-11  1.2905536758338363e-13  2.7453083015668470e-13  -9.1325254226761656e-05  -7.9271039703120004e-05  -4.5414595597852704e-05  4.4769737725799658e-12  3.9651358883490401e-13  9.3552697074200135e-05  5.1333984331140053e-13  -4.2381471374948859e-05  3.6603288925017000e-04  -9.9995131046120509e-05  1.0296336114469153e-09  1.5376999524573246e-05  -3.7431903513947173e-05  9.2344582569056990e-04  1.2922337369280328e-03  -8.9003983273062691e-05  3.1165884734964839e-05  1.3496740961501948e-10  2.3208407429766123e-03  -9.9859003915787542e-05  2.0705770179546023e-03  3.6973454768754373e-07  2.4532528592459613e-04  -9.8139252084389716e-05  -9.9996665306190235e-05  -9.8705492806848603e-05  1.8191392805034662e-03  2.6273612617991177e-05  4.4780941981895811e-09  3.0530986298383237e-05  5.4934711395711563e-11  7.6271979161754184e-04  7.7530637309928834e-06  -6.4490030792534842e-06  -4.3177144957468050e-05  2.7809372628195117e-04  1.1497511799700513e-03  4.1086888086906219e-10  1.2305267222605660e-05  1.5329849051726109e-03  6.3514357378323566e-06  2.5503027949730725e-04  1.1641041721477943e-10  7.4197954597686318e-10  1.7020012139239800e-04  1.3253451097521544e-04  1.8911232125349906e-10  2.1770799143149691e-11  1.4012477801934329e-03  1.0145040356758816e-03  5.9222149095323974e-04  4.6406085938680437e-04  1.1054701241365488e-03  6.8395249536843271e-10  4.4142862974293459e-10  5.4082884305452053e-10  5.0680583840753650e-10  1.0386440696763249e-06  5.6429778053467120e-08  4.8811093492968891e-05  5.5578286957824632e-04  -9.4730440648583685e-05  1.1037914094370137e-12  3.5057967539236264e-09  4.1757781287446893e-08  7.5673225977691856e-10  3.4950095508389704e-04  3.8397311935314850e-06  1.5848429509652585e-03  1.3091479895636280e-11  1.1138739275199830e-11  5.6665341616179804e-11  3.9996636358954668e-09  2.1313011527093181e-05  7.8575805399536450e-04  2.5100436732248355e-13  1.0782260806700016e-13  1.0438289601507986e-14  -1.5080614514520259e-05  -2.8680917141143666e-05  -9.9990820402380426e-05  1.7331050190421378e-04  -9.9728542371715321e-05  1.1064314218128064e-09  8.5242243795081839e-10  1.3902326264464534e-04  1.1796048352659721e-09  1.1750220867310464e-08  5.0708312540290363e-05  7.2078181805124136e-06  6.4036083697095638e-10  4.3333807602905460e-04  1.0821298643605790e-03  -6.7588096570032574e-05  -4.5327865979164037e-05  -1.7386784956182281e-05  1.1231347905491780e-11  -2.0096319224010563e-05  -1.5985576127454449e-05  4.1738163526367363e-11  -2.1890129954842615e-05  1.7911708154312017e-14  4.4769935305120960e-14  4.4543294113912808e-12  8.9558433230518183e-15  2.2373649685617830e-10  9.7450537014542934e-10  -2.5235130548554780e-05  -9.9989704635255181e-05  -9.8790934875815116e-05  -8.0289916028157112e-05  2.9234700020096866e-08  1.7869038934575439e-06  1.0034242555507044e-05  -9.9849003277341125e-05  5.6233026617954031e-05  3.5101422783171673e-04  -9.9769188179807904e-05  -9.8480282237463820e-05  -9.1149282580050631e-05  -7.6825845439195035e-05  1.0266993502185297e-09  3.0621960602120087e-03  1.3083071489528530e-07  -2.8249446967180868e-05  8.2650345762958615e-10  8.8543551399892170e-12  1.0675455644262757e-03  5.3303367907222199e-05  6.3091409380194436e-12  1.0444569750918881e-03  2.4463605414634842e-10  4.1859508650953989e-04  9.3591248134320308e-11  -3.6437995512187378e-05  2.7148014212305493e-11  2.3511468189129910e-12  -6.1027697561807325e-05  3.7232231863054243e-04  6.5342248727412618e-04  -8.8840620265257433e-05  7.0201967365269227e-10  3.3129848194173743e-11  2.9311509874278298e-04  8.0167322287989909e-05  1.4121620216990638e-04  7.8555113003460927e-04  4.1310457091869835e-04  -3.9318512309621916e-05  6.0043553432105564e-10  4.3823612795696807e-10  1.4642114822842946e-10  3.8746299979271447e-08  2.3093141734498491e-05  4.3878007099311259e-04  -9.6768037683404011e-05  1.1627527257475210e-06  2.3659201460300061e-07  2.0196755199368377e-05  1.9486072987524201e-09  9.6315527173512598e-04  9.2517885896428709e-04  7.7297645623491272e-09  5.1402448096353947e-04  5.2835829472342799e-04  8.6481934924356372e-04  1.1097009426087484e-04  6.7328454076507629e-04  2.0623575428287403e-08  2.0276110656963742e-05  -4.2480007785936968e-05  1.2093369281132855e-03  1.2017342128619123e-11  -7.9392226493093379e-05  4.9964732249651921e-06  -9.7879781369816833e-05  8.7474333086339634e-04  3.7028144951661580e-10  2.8986759608398937e-10  1.8073104694944721e-10  2.1313578242966769e-03  1.5807294231900804e-06  -5.2595382443974642e-05  -3.1210950409060162e-05  1.9668988532923286e-06  2.4205351693779631e-07  9.1834512449195573e-10  1.2112716227976496e-09  1.3654864222785819e-03  4.1602620810006615e-04  -8.1689953244804323e-05  4.0333841401439852e-08  -9.8523553776592215e-05  -9.9826794680595609e-05  7.7384891287627364e-10  7.0963001619900453e-05  6.6153050799655236e-11  5.8848759580740757e-11  7.8947061611282253e-06  2.2164543021492369e-06  -8.0347628017033419e-05  3.1136495006196193e-14  5.8581892991658883e-14  -4.4677286290808679e-05  -6.7498178690330161e-05  -6.7125990331088096e-05  1.0720620036738764e-12  1.4700658106928638e-12  4.9173179719971736e-13  -3.5811972908678100e-08  1.1665121363291493e-06  1.1204247890470960e-09  7.8221850798698696e-14  -2.7022933544273087e-05  -5.8716770561085911e-05  1.1123786592450977e-09  6.2456733106156306e-11  8.4955769786699351e-10  5.1172229918970129e-10  4.2486541039079443e-10  -8.7000998467155161e-05  7.0704157059531660e-05  1.9456138197204449e-03  -8.8396773437528743e-05  1.0601665039227980e-11  8.1876648264694525e-14  9.2273246510719913e-14  2.6812433261016633e-05  -2.0559673169650471e-08  -9.5018371879007288e-05  -9.4931261837991613e-05  2.6729305515440626e-10  3.7283180751987328e-07  5.0847679403669347e-05  2.8342633340875111e-11  2.5346674311578186e-03  -4.1461712052901933e-06  2.0758452837353137e-04  1.6793608673096955e-12  7.1856489326104946e-10  2.0303213776613730e-12  9.6282694918655955e-05  -9.9640913053611750e-05  1.7011335341859425e-13  -6.6135692930691236e-05  5.3085834488758186e-04  1.4338744022856689e-05  1.8329328454053212e-04  9.4004660362273866e-12  -2.8658672670092705e-05  -9.9985245745009857e-05  -9.9997270962295541e-05  1.6346243977484078e-09  5.3382543201633527e-10  1.0111188512686722e-03  9.3211731093196492e-11  1.4220466108397448e-10  6.5917448190052144e-04  3.3388822978847434e-11  2.8953961460455481e-08  1.1743744400753656e-03  1.0386036711698297e-05  -3.1030495441638974e-05  1.7545001556407793e-03  2.8851825106713069e-03  1.8960442975734032e-04  2.3631800744126335e-03  1.1808292916569441e-10  -9.9468114856847873e-05  -9.9995341804804885e-05  1.3224085222551252e-11  2.3092306215003933e-13  -3.8733432402154852e-06  -2.3757401922965832e-05  2.6824634654546008e-05  3.2753532499754132e-06  3.3977186922614359e-08  3.3513746960618339e-10  2.4798810425547457e-04  1.9344887455088859e-10  1.0442243449408149e-03  -8.1757503513784266e-05  -6.5041372171543966e-05  1.7796211815937453e-04  -9.9966663551995087e-05  1.3496527035062114e-09  2.0518760139955094e-04  9.4267881747523829e-04  2.5501864497129412e-04  1.7772212901806394e-06  7.8520577528301848e-05  1.9325006117530612e-03  1.4255321939336185e-06  1.1271921986597787e-04  4.4326993167266183e-05  1.7458696354932186e-11  1.5329329156051159e-03  5.4537459367468878e-04  1.5038183124452423e-03  3.3567920737000273e-05  -6.4672513750328094e-05  7.9982500031271413e-13  6.5110328982009044e-04  4.3619425210616855e-10  8.7128262599279316e-10  -6.1185785203873416e-05  6.3870179195331760e-05  2.6541648043474747e-04  6.5785222352243993e-05  1.9892626771333358e-04  1.0908099609849881e-10  4.7840063272447926e-07  1.6880099061767067e-03  3.5433207392183211e-03  -9.9960081798087196e-05  8.0400286739674014e-11  6.1736069931891034e-12  1.0637984294828550e-03  2.9117781547156378e-10  2.6134902269123991e-04  -7.7821110554805164e-05  1.7417113044140217e-03  3.8396940560215896e-14  5.3832166081054354e-10  2.5912051297751245e-09  9.3697334943794341e-08  7.8486868744597014e-13  -9.9455937381243728e-05  -9.8997113814482552e-05  1.4620292891254665e-06  7.9954222591639267e-04  1.5113187863685131e-03  -1.6691926981353067e-05  5.6228732626065962e-04  1.1858226296002201e-03  2.3222170238802251e-04  6.2816561422230700e-04  3.6424658900428802e-05  -4.1674944824686616e-05  -9.7154411938779148e-05  1.5177885146512089e-04  7.3175840462159968e-04  4.6617927086318751e-04  8.0985344800365058e-10  1.3735265991015855e-03  -3.0517502592877068e-05  -4.7787571384179685e-05  4.2217581781087585e-12  4.3015515780433089e-10  -8.9652658103223746e-05  2.7240190884459499e-10  1.0141476916667586e-03  7.9313037555925004e-10  3.4105392425446570e-13  -9.8531147479365426e-05  5.3476563390202818e-05  3.2705816523240868e-11  8.0040108164871699e-05  9.7952119219635271e-04  4.5596766790501688e-04  3.2629731133514355e-10  6.4846044717058642e-10  2.4160110078033235e-13  1.3678228036557230e-03  -9.9976351104666723e-05  2.7688288429247377e-04  8.1413287236298973e-06  1.0681265939598913e-12  -2.0771768401650442e-05  2.8477146556281785e-08  2.5110714338326375e-03  1.2299412965784467e-03  -1.0383751225185391e-04  1.3118969561995652e-03  1.9031694886167078e-10  -9.9796801496350739e-05  1.5667208549347952e-12  3.0330891636692015e-12  -9.2723539135097555e-05  -5.3757707310668769e-05  1.5239855450553117e-03  1.8573839106199761e-10  3.4818453022024609e-03  9.4285192664348217e-12  7.9186315676987988e-10  1.6321798411156774e-09  5.1037439509707533e-10  3.7257391690530043e-10  3.6337897260408182e-10  1.3377587886652892e-03  8.9729817446843572e-04  1.3770322900804681e-03  9.7149530012061468e-10  -1.6032881898841773e-05  5.2693889329356609e-04  2.0808140155377351e-04  -4.7046327596401479e-05  6.2993490425232326e-04  1.5231321866241912e-04  1.2651324747445227e-08  5.6508285096978661e-10  1.6615360833818044e-03  -7.1692893877399688e-05  4.4060619843509224e-05  2.6551810430920897e-10  3.9560977933792447e-06  2.8417402817716362e-09  1.9142806484377456e-14  9.8749635488244042e-09  1.3589117065990862e-08  8.4769896611375933e-04  -9.2484911030533230e-05  1.6336564604151703e-04  1.0557555320698666e-11  1.1879808620989656e-07  7.7457663749782527e-05  1.0030956914269348e-09  8.0989055444140804e-15  4.0447654526745707e-14  -3.2341177269611805e-05  6.5274040636062361e-10  -9.6541534861622517e-05  -9.7481897946560719e-05  9.5126449228819739e-11  3.7409619637515326e-04  6.2622031764012455e-10  3.5592475380372005e-04  7.8672592104240097e-10  9.5689187020347977e-04  4.7501366883363305e-10  -9.6866944583679670e-05  -8.8721841281984255e-05  -2.4745355911278738e-05  -2.7544139419349881e-05  5.4741618835816409e-10  7.4019598373353095e-10  6.0265968488398216e-05  3.5747245588768555e-13  -6.4569003598462197e-05  -8.7601944461500290e-05  7.5976493637375885e-09  3.6346430908566492e-10  3.9037694630501054e-05  -8.0420167052918271e-05  1.6037102862495684e-05  3.1625603498759528e-12  4.4484828842114605e-10  1.3911378152140111e-14  7.2201505266782089e-12  6.9557607460319539e-12  2.0836766851492772e-11  5.5083678942474914e-07  4.9053765023298213e-06  1.1892454958849212e-07  1.3399508521388755e-14  -4.2096683159417245e-05  1.9746006086526998e-12  -7.1859603620906125e-05  7.7157808483201089e-05  1.3349729365787779e-09  7.5541591416247538e-04  3.9509122410018185e-04  9.0333609364110669e-07  1.2682429536144585e-05  5.9190152300602909e-05  1.7512271866198128e-08  4.3115309851414928e-08  1.5054410938222264e-13  -5.9513830848311047e-05  5.0412410211000257e-05  6.8524508726976976e-10  4.7489459458706669e-05  -4.9259672335723517e-05  3.4807236426626724e-13  -8.4182150819784265e-09  2.4992347994720670e-06  1.0249594040916572e-08  3.9472361484875430e-04  2.6454537300115360e-14  5.9613633282599720e-05  -9.9998283593652468e-05  4.5386204794262038e-14  -3.6035016552017687e-05  1.9215871625010550e-10  1.0550234253976224e-10  5.5776518432791306e-04  2.2635373084716559e-05  5.0645849435955665e-04  7.3646666417327938e-04  6.0263906806402871e-06  6.2515221867476289e-04  -9.2736980705205685e-05  1.4665930649724560e-03  4.1595680613669727e-11  7.2518890446764445e-14  -6.3453076957314413e-05  9.5675428929310193e-04  8.9677290697231065e-10  1.9774337215602598e-10  7.5180072665330723e-07  3.6258789381864479e-04  -1.3744295653508807e-07  3.2958702669213223e-04  6.9808263241778040e-04  -9.5069640800111847e-05  6.9327975868320399e-06  5.7684221020762881e-10  5.4494355622818954e-09  3.8075322189498981e-11  8.2652789473320000e-10  -9.9992044867038850e-05  9.1183120458872222e-10  8.8048690724953462e-10  8.2685115606818389e-10  9.1518085339696624e-09  9.3559924243114470e-10  1.4024815732240087e-13  3.6778136975783008e-14  9.2332450768464107e-04  1.5758481249032754e-03  2.2304331752544343e-06  -9.9834769503750291e-05  -2.7436297469134714e-07  3.5425387132105113e-04  2.0414542115392608e-12  6.1625855204240442e-10  2.4474596592773226e-05  3.9329062775308335e-13  3.4226825254570003e-05  8.9280861721272487e-04  3.2475321425053609e-04  6.2429041669731941e-07  4.9782807339531855e-05  3.7213530970149085e-10  2.4710010622457557e-05  -3.3269408456670040e-05  1.2129735143943742e-09  1.4329046508841162e-09  1.2553150232942799e-04  3.2780049247152179e-10  6.4065404658470798e-05  1.6823629818900438e-09  -6.7197188692803096e-05  2.3943816629968672e-14  7.6981785941812916e-06  8.9266467074255150e-05  2.3918733163616292e-10  2.8059217319308776e-06  2.8206927308241836e-04  5.8250499427401565e-10  3.3809691634992831e-04  1.0617461094474030e-09  4.2176399369764503e-13  4.5413765176400621e-12  6.2738228696481586e-10  1.0078447448639438e-11  7.4315131196221534e-04  -9.9308561189203430e-05  -7.2809841328126768e-05  -8.5954661987312214e-05  4.5835078467087355e-06  4.3533484542038268e-04  5.7061031188680429e-11  2.3093838806725463e-04  1.3361985167284947e-03  1.3990668741253572e-03  8.7664060550053466e-07  1.0471683547991558e-10  1.4813689802248364e-12  -6.8365810991076066e-05  -9.9996676913321778e-05  2.3591762466183749e-05  4.6061211366855062e-09  4.6289834081280563e-10  8.2930233220079717e-05  -2.0482977282293714e-05  2.1675056213197973e-04  -2.2290423309963124e-05  -1.5798637972567383e-05  -9.2109915206619056e-06  -9.9464905430455541e-05  -2.0314014161178224e-05  9.4271199948442469e-09  2.7966315103856908e-11  8.5613186051283705e-11  5.6479051527719266e-14  2.2588775721612175e-12  3.2023538886767831e-10  -9.9996264835637588e-05  -9.9996928357323208e-05  -9.9997198645899234e-05  -2.0793443933210209e-05  -9.8491298051700185e-05  7.0235706730097668e-10  9.3251493905244811e-12  -8.7618303024958398e-05  -1.4765414089467419e-05  1.1285223435434892e-09  -4.0187605415146089e-05  8.0763318386410590e-15  9.3513644846544187e-10  1.8364990168649546e-10  -1.0591228545938707e-08  4.1534849243424343e-06  3.1108311673526336e-04  9.2850735129616889e-06  1.5253389416993936e-05  2.5324472539405653e-05  -9.9923752003344156e-05  3.6223865739416993e-05  -4.6897784017275813e-05  9.4395600507860466e-08  3.6404311695798938e-06  9.2459824671486409e-15  3.1144340476384830e-11  2.9622155745241362e-05  8.9367111177286935e-04  -2.8336091292312002e-05  2.7453236901621780e-10  -2.1845970945626066e-05  -3.3356142687060621e-07  4.5218564716965464e-04  5.6281859503684066e-06  2.1834839184186628e-06  9.8568062993849081e-10  4.6033955008639748e-04  3.7792937006247436e-04  -8.4649509294932259e-05  1.6944204414395996e-03  5.7846076698123889e-10  -7.5924570681683089e-05  -9.9990630287754006e-05  -9.9833751340306747e-05  -9.9720045113236430e-05  -9.9995737095988311e-05  1.0422588530839491e-03  4.4679656455062925e-03  1.7993261401728400e-12  1.2515575708233653e-03  -2.5709243836487891e-05  2.1674410355441973e-10  6.1537566754024881e-04  3.1739218052857117e-10  -9.9947815348244606e-05  -3.2576113738814151e-05  5.3817592433209427e-04  6.6223348648327763e-04  5.0082111596056226e-04  -8.1520491940307411e-05  2.9143672834809239e-10  1.8869940053885053e-03  1.2802697483662068e-03  1.5112509635871134e-11  5.8415097475281491e-13  2.3556629995899856e-03  3.1489366341527718e-12  9.8859797005921657e-13  7.9193744602816302e-04  1.0878566475790161e-08  3.7129014863621498e-08  1.1434058985962396e-06  7.1752878575985728e-08  2.9259478752161708e-07  -9.7449933449313879e-05  -9.4993359187199762e-05  9.5662817723975494e-04  3.0838528214004637e-07  5.6271056479804334e-08  1.7148975381399613e-07  1.9852385592471719e-08  -7.2039082587123927e-05  -9.9994301795675803e-05  1.7512308106121033e-04  -9.8681545865472533e-05  1.7805666581544502e-09  -9.5662813644585145e-05  -9.3514844695752526e-05  1.0659983883076803e-04  7.6108770495373994e-08  5.4153224965615222e-11  3.1939628960769021e-11  -7.7800974751825175e-05  1.2744470843264444e-04  -9.9908208622084986e-05  -9.9697199603443031e-05  -9.9219471904018439e-05  1.9311165059210168e-05  1.0581087069838117e-12  -4.7428254529736189e-05  -2.3182044009823336e-05  -5.9487811430923824e-05  -6.2674836748998882e-05  -5.0980258801203839e-05  4.6545234899963219e-04  8.9250924113658657e-05  2.5298428386298721e-10  9.5213030353583670e-08  8.2732976260558257e-14  3.4151934433323113e-09  5.9167930886930655e-04  2.8897377256061047e-04  -9.9884471243733591e-05  1.3612704252229991e-05  5.6595048575581648e-12  1.2973014263221207e-05  3.4732610696331742e-10  6.4971762986219741e-04  2.6201562424734890e-03  1.5922977538559869e-11  3.1681842245288844e-04  5.8877241050079524e-04  3.0425159436540318e-06  3.3190091035500846e-12  -2.2517738613815504e-05  -9.7795698048502242e-05  1.1587989952723363e-03  4.8544997153105876e-05  -7.5655437255650246e-05  1.2187975479906149e-03  9.3200828099556157e-04  -9.6239715066461905e-05  1.4830297098260218e-13  4.9213313996232095e-10  1.4680347851980828e-03  -5.4718612815740942e-05  -7.1306813113975752e-05  -4.7700744289335622e-05  -2.7296874375830502e-05  1.1756120151138345e-11  -2.1777382660119932e-05  1.4590350137627842e-11  1.4612813294809321e-13  2.4775859023987590e-04  -7.2634485982444740e-05  1.38