<?xml version="1.0"?>
<VTKFile type="UnstructuredGrid"  version="0.1"  >
<UnstructuredGrid>
<Piece  NumberOfPoints="6454" NumberOfCells="12638">
<Points>
<DataArray  type="Float64"  NumberOfComponents="3"  format="ascii">0 1.5 0  0 0 0  1.5 0 0  1.5 1.5 0  0.75 0 0  1.5 0.75 0  0.75 1.5 0  0 0.75 0  0.75 0.75 0  0 0.375 0  0.375 0 0  0.375 1.5 0  0 1.125 0  1.5 0.375 0  1.125 0 0  1.5 1.125 0  1.125 1.5 0  1.0625 0.4375 0  0.4375 1.0625 0  0.5625 0.375 0  1.125 0.9375 0  0.3854166666666667 0.6979166666666666 0  0.8049568965517241 1.130387931034483 0  0.28125 0.28125 0  1.21875 1.21875 0  0.2175662878787879 0.9079071969696969 0  0.5625 1.303571428571429 0  0.8290441176470589 0.2738970588235294 0  1.303571428571429 0.5625 0  1.2578125 0.2421875 0  0.2421875 1.2578125 0  1.010416666666667 0.6979166666666666 0  0.2051282051282051 0.5216346153846153 0  0.9856455736880344 1.297298524562678 0  0.7653719096334186 0.5079390451832908 0  0.5481770833333334 0.8606770833333333 0  1.039462506743128 0.2044177382376396 0  0.5828641541157527 0.6178675878563986 0  0.9136904761904763 0.8913690476190476 0  1.3125 1.03125 0  0.6409183354192741 0.1798341677096371 0  1.281668526785714 0.7820870535714286 0  0.1875 0 0  0 0.1875 0  1.5 1.3125 0  1.3125 1.5 0  0.1920012972225798 0.7153938510340165 0  0.4043073677566794 0.4982626425332328 0  1.054735085357395 1.117171638214202 0  0.9375 0 0  0.5625 0 0  0.1875 1.5 0  1.3125 0 0  1.5 0.5625 0  0 0.5625 0  0 0.9375 0  0.5625 1.5 0  1.5 0.1875 0  0 1.3125 0  0.9375 1.5 0  1.5 0.9375 0  0.4468932545895913 0.1802144181965304 0  0.7987562970593343 1.318357727289711 0  0.6320399113235965 1.037924776639822 0  0.2603996068459564 1.080712106845956 0  0.3802379261363636 0.8658558238636362 0  0.3950892857142857 1.331473214285714 0  1.229910714285714 0.4095982142857143 0  1.13745405880473 0.5879074784276126 0  0.7482946595664349 0.917427298948138 0  0.8625423372573767 0.63562835295355 0  0.9012540315035069 0.4192242537897745 0  0.6862861647268528 1.220560482834343 0  0.1224516396650128 1.023194379059598 0  0.125 0.28125 0  0.3042571223994863 0.1326690407998288 0  0.4149781713917952 0.3488154858246145 0  1.359375 1.171875 0  1.3359375 1.3359375 0  1.131854448751258 1.346034816250419 0  0.84375 0.1212988551125148 0  0.1361607142857143 0.1361607142857143 0  0.691638521804216 0.3135510227244841 0  1.131379139752747 0.7872570780892659 0  0.9688853304056201 0.5429870982608649 0  1.134057265332395 0.3075921335077801 0  0.1060987903225806 1.21875 0  0.1387129645862553 1.361715427487219 0  1.393901209677419 0.28125 0  1.361287035413745 0.1382845725127811 0  1.21875 0.1060987903225807 0  0.3601433665263453 1.180455866526345 0  0.5483798738512705 1.157949853770241 0  1.36815753200686 0.4172967302747542 0  1.187531723571597 1.085953361785798 0  1.401785714285714 0.65625 0  0.65625 1.401785714285714 0  0.09804407994526333 0.84375 0  1.402254384056937 0.84375 0  0.28125 1.403363735808893 0  0.925464184745229 1.040966878346683 0  0.9340282126721275 1.174186719212852 0  0.8797957988728348 0.7651628218565172 0  0.9934051945542568 0.3266495984636094 0  0.203125 0.3887553418803418 0  0.3141644363520071 0.590454276924375 0  0 0.46875 0  1.254999444628736 0.9118761107425289 0  1.03125 1.5 0  0.3213923331757561 0.9738827583030052 0  0 0.65625 0  0.1159730568910257 0.609375 0  0.5141588149450601 0.7319349350549398 0  0.5326188770927806 0.499793044891493 0  0.6693710930845284 0.4331752184013763 0  0.7121702197229691 0.6260790780451906 0  1.234475471272342 0.6664938523856012 0  1.098390770327214 1.229886041743451 0  1.013464781580893 0.8203484622190179 0  0.2952629260823795 0.7791860223918741 0  0.4928385416666666 1.401785714285714 0  1.21875 1.5 0  0.6298376402880013 0.7702339567996885 0  0.7848608254810038 0.3893687681820236 0  1.5 1.40625 0  0.4622923140598757 1.236370233688302 0  0.4667991207677928 0.9473088592382519 0  0.2981266305022628 0.4537778927841646 0  0.84375 1.5 0  0.9008085981204581 1.384216576384643 0  0.9616882272291621 0.1155730914816442 0  0.5035849743784865 0.2782669836795798 0  1.009598009491631 0.9590831193486247 0  1.105310675430652 0.1118663280349183 0  0.9288474621627256 0.2227857609567891 0  0.7464170347051563 1.031945227193052 0  0.1125198733612451 0.4565759846003609 0  0.841690222029119 0.9722978654718903 0  0.4672907609250232 0.5973206048957169 0  0.5437787095683263 0.1151781905475824 0  0.7536044163845748 0.1896192335637668 0  0.65625 0 0  0.7049920363331066 0.09569941760663599 0  1.40625 1.078125 0  1.39081588470667 0.9535067694133395 0  1.40625 1.5 0  0.6375104178177308 0.9268732242701165 0  1.003645772935292 1.399729634730415 0  0.1610182417168329 1.124880958145783 0  1.304862449892061 0.3348605478786471 0  0.8685031591756179 0.5174815394805063 0  0.203125 0.2142857142857143 0  0.46875 0 0  1.236252628961601 1.388617949258287 0  0.6528472422531054 0.5380411271234069 0  0.8059365139027533 0.8342920789922936 0  1.210984939277725 0.5129097255512943 0  1.166392387042105 0.1947779113806861 0  1.03125 0 0  1.112027098777656 0.6868999874317245 0  1.4091796875 1.2626953125 0  0.7056210334910562 1.122831931927321 0  0.8445532731910484 1.225781273471752 0  1.401785714285714 0.5192199888552865 0  0.5315992325579575 1.02511262900491 0  1.40625 0 0  1.5 0.09375 0  0.09375 1.5 0  0 1.40625 0  0.09828267889765753 0.7453580504435201 0  0.2137299928547555 0.6195416563936835 0  0.191293077366709 0.8134420362003882 0  0.395652989337951 0.09620832696794322 0  0.3786395303236629 0.2546156254865724 0  1.105082759698279 1.033286095599126 0  0.09375 0 0  0 0.09375 0  1.269539180892899 1.136742542678697 0  0.4693126788152344 0.427799606155492 0  0.6022922682526717 0.2709632077670539 0  0.286537769267488 0.682999829576168 0  0.431696207163009 0.7833932160815852 0  0.6864071374811688 0.8459705255349474 0  0.7528727250742914 1.403406392299215 0  1.40615841291152 0.7499896558614008 0  0.46875 1.5 0  0.28125 1.5 0  1.5 0.84375 0  0.65625 1.5 0  1.5 0.46875 0  1.5 0.65625 0  1.21875 0 0  1.5 0.28125 0  0.84375 0 0  0.28125 0 0  0 0.28125 0  0 0.84375 0  0 1.03125 0  0 1.21875 0  1.5 1.03125 0  1.5 1.21875 0  1.203254432787244 0.991934092179911 0  0.7018429057870754 1.316240552056942 0  0.09232383443139219 0.9359101690420062 0  1.40390625 1.40390625 0  0.2348931380369949 0.995323396873026 0  0.3477301897825538 1.059746137541629 0  0.2397198755521273 1.168072125048833 0  0.21928098141281 0.08974206793316726 0  0.09164332482786468 0.3669827664371529 0  0.4604861261832766 1.147925083553434 0  1.208242546284113 0.8346339808272811 0  1.042270885119771 0.6063462845058686 0  1.320424270852333 0.6988339884515781 0  1.018211345242011 1.19612913087091 0  0.3232572989405801 0.3642302377411452 0  1.219683471513571 0.319825657354259 0  0.9022918689243919 0.3281052118114913 0  1.209245485719643 1.305564994554257 0  1.051234566759267 0.5217852582666107 0  0.3673510104646698 1.413627432420576 0  1.295769937043816 0.4720643981603306 0  0.3072023010063974 1.318381411439101 0  1.141690261405714 0.3964585327199988 0  1.132920129606929 1.151700997493917 0  0.4797323103182937 1.318677829548113 0  0.8975459458359925 1.296170152543854 0  0.464209749529605 0.8633392490855897 0  0.2934839260221656 0.8659218053661386 0  0.5291505402246311 0.1980703646347806 0  1.129554686622487 0.4893579115624633 0  0.6803878781969045 0.7035160631177291 0  1.32373046875 1.25048828125 0  1.32216796875 1.41767578125 0  0.5499851861317793 0.9439128053349233 0  1.022629866909724 1.040850270203209 0  0.5745442708333333 1.417645342938312 0  0.6210905905518814 0.07817000059074161 0  0.8251326424747147 1.051763251304391 0  0.9840195129520318 0.4094589843317338 0  1.335304710332526 0.8922471458140904 0  1.056578658899854 0.8909713350312058 0  0.6311277392046407 1.158870891931624 0  0.08048866130562571 1.097266504752301 0  0.7899471681381695 0.5900550615276262 0  0.787583911300231 0.6744258112570235 0  0.9253568605083915 0.6931779950154204 0  0.6069241236579608 1.236016193461046 0  0.9754544598564333 1.105608345312828 0  0.5891224709431884 0.6993621756793521 0  1.20518939408778 0.7458807514137317 0  0.7661039078070937 1.202429845202379 0  1.160750676252366 1.424456431149488 0  1.07906062607374 1.432028171475168 0  0.3800251736020173 0.4214243130004857 0  0.9386398271504294 0.6156244973145778 0  0.0625 0.234375 0  0.203125 0.2933407738095238 0  1.215434655272782 0.5908176357312523 0  0.3862873976850203 1.253958025454808 0  0.9642783311550196 0.7603191879845486 0  0.07907187269262334 0.5337704210040105 0  1.05323270401054 1.338218592033867 0  0.7809244217906405 0.07297738156489482 0  0.8538188665025647 0.1992768958275427 0  0.9002757663302332 0.06810835486946346 0  0.3896574912364178 0.6177519597715768 0  0.8312147565658268 0.4504658003252042 0  0.6060876899209792 0.4769383705177015 0  0.6973120163099531 0.973865749266754 0  0.2220506518942812 1.34123409472246 0  0.2016535060668421 1.419937676612376 0  1.067204461774397 0.7475876083618238 0  1.126113744622621 0.8622904019182541 0  0.3283697934586307 0.06033102762239553 0  0.3141768357227177 0.2102768223058998 0  0.8836591735735614 1.110539499889141 0  0.9335121559963067 0.9650712587476813 0  0.489881977219376 0.3554687673286838 0  0.1635028372004782 0.9601830799237989 0  0.190064339368102 1.055218085849877 0  0.4693032589410306 0.1089149617768512 0  0.826087350728517 1.388004148744978 0  1.071391321568866 0.357735705332231 0  1.056880377786583 0.2807740346831144 0  1.3359375 1.1015625 0  1.4296875 1.1484375 0  0.3906148988360577 0.9415494491776595 0  0.06145603826933142 1.359375 0  0.06985309644022948 1.2846420920388 0  1.438543961730669 0.140625 0  1.43014690355977 0.2153579079612006 0  0.161811455697184 1.281243264907209 0  1.2989767800824 0.08251937661177217 0  1.282654529021692 0.1634516867188552 0  1.343324227095839 0.2175851507697937 0  0.5747241214300347 1.087143402580354 0  0.1502172474800126 0.06370164366342397 0  0.07677312842259779 0.08704698619211086 0  0.06709364565267519 0.1592134266688963 0  0.1305803571428571 0
[...]
<PointData  Scalars="f_23826-3"> 
<DataArray  type="Float64"  Name="f_23826-3"  format="ascii">5.9878248928366548e-06  -1.6477152940932939e-14  -1.8298519927480765e-18  8.3366287137460592e-05  -2.4892805364359805e-15  2.5524029344957786e-12  4.7714356903966685e-05  8.5596609524065608e-06  1.2054057433652931e-04  5.3876500949748287e-06  -9.8529926532677769e-15  5.3958656985105035e-06  8.4523886694386301e-06  -2.1727646055698250e-18  -2.0677065617052346e-16  1.0885050364669376e-06  6.6769428921644998e-04  2.6271746996226575e-14  1.1944233382247941e-04  5.6773692139215088e-09  1.3373613992722403e-05  1.7170549345616598e-03  1.1049704379781317e-03  -5.4784320878082841e-09  2.2290425290983471e-04  1.3837648759321673e-05  3.4809381499814912e-05  -5.1602142949912329e-15  2.5370721361234092e-13  -4.9254135726888936e-17  8.0229699455768648e-06  2.6923759844289348e-07  2.5052411848907464e-03  9.6831483236342662e-04  2.7848258512652932e-08  1.3444341501039627e-03  -4.3559388962445955e-16  1.2960439948421246e-04  1.1843328217237701e-04  5.0105646554489886e-06  -5.7222721665364669e-15  5.3739762347582432e-09  -1.3309588067197654e-14  3.7197940977340400e-11  1.9710144898402653e-05  3.6608941643341330e-04  1.5606270184529650e-04  1.8244493162083349e-04  3.8997865084257935e-04  -8.4406535567344935e-16  -7.0095011394190700e-15  5.7849104538058256e-06  -2.9401769817205998e-17  8.0435986793425772e-16  8.6167337768511433e-06  8.5546401208404939e-06  7.2170923814960607e-06  -2.2499915634181786e-18  7.8213551649139043e-06  3.2856307595590436e-04  1.3347486695838802e-08  5.8135714788461166e-15  4.3478693107260757e-04  8.9923599094180807e-04  8.7040723886578715e-06  4.9952632556468288e-04  7.7452159830601512e-06  1.6044012316706963e-16  3.4854830044964547e-11  8.2752811500838715e-04  8.8508185389555537e-07  4.6712423492847456e-12  3.8081265636367371e-04  8.5386037948144212e-06  2.7867774709072591e-08  -1.1582679023891419e-14  1.0666444520930005e-07  2.2052105878502026e-05  1.6692008085835835e-04  7.2358699006500385e-04  -1.7708398635532908e-15  -2.2844172853034765e-13  2.0011488558036760e-12  4.2997311480983327e-07  3.3947976935999238e-10  -2.2203269733554418e-16  8.2218994806958179e-06  7.3271945305665754e-06  -8.4787565634764819e-18  -1.5759052350487739e-17  -7.8833905260341506e-17  1.0326305042035487e-05  1.4637694966547070e-04  -1.2526316042250314e-17  5.9355014641770547e-05  1.4714410399338598e-12  4.0452478809403643e-05  8.5898102351724698e-06  4.5892830810997351e-09  6.8457429934757064e-06  5.6766195128198885e-04  9.4913307617282706e-04  2.0547086869593802e-05  -1.0910956195783382e-15  4.8576257513714672e-04  1.9293077582986937e-03  1.1403551121732922e-05  1.0787737844023772e-06  5.7916002110971554e-04  4.8241463455382776e-05  8.6135749922607870e-06  9.8827588922916382e-05  1.1717717606029117e-03  1.3220143604873873e-05  1.3222356288485818e-08  1.1494986146746645e-05  6.6330744991732965e-11  5.7362296907355890e-04  7.5766848048098170e-06  4.6453440036814441e-04  7.9720668943107669e-06  5.6341459022751523e-04  6.2700896559270234e-04  3.1084601188825408e-11  5.4894925732778147e-05  1.9247698488402951e-05  5.6930086865089038e-04  4.8164597730509964e-04  1.3777598160338942e-04  5.8679760777641742e-04  -7.9990944556347695e-16  -1.4939814268355977e-10  8.6983166925228147e-05  -2.3749324017175015e-16  -1.2287479613357597e-15  1.1606986846669698e-03  2.3762085126442728e-03  6.0823106065383686e-04  4.5199546063513123e-04  -7.3842427358046079e-15  -3.8177924858959547e-15  -4.4749625301108018e-15  -4.2467847392638246e-15  2.0179115317827895e-06  2.3127327972497713e-07  1.8238099798136074e-04  1.2544975928159749e-03  7.8775782091269181e-04  8.4579066362502151e-06  -3.0354608611318393e-17  2.0304535126423311e-09  -5.2872167879794480e-12  -8.4480507932160301e-15  4.7254620057635767e-04  2.3173158149752011e-06  1.9537774767025538e-04  1.4053421550686081e-13  -1.4193970534328636e-16  -4.3073334033763961e-16  1.0491283206208368e-08  3.4523619479013972e-05  8.8485678575597022e-04  9.6290239542406444e-04  7.6289102044600891e-16  4.7018565802560506e-04  -7.1966257192593524e-18  -1.9533848916119556e-18  5.9211505574045949e-06  7.1325998992969018e-06  9.4491533969038358e-06  9.6564442392137032e-04  2.3641027337487606e-05  -9.5607529188684966e-15  1.7682032272113614e-10  8.5969036627643006e-05  -1.4891410855633079e-14  -4.6615929484807510e-13  4.4484209006908782e-05  1.6056152434101595e-06  -6.6187949940974431e-12  1.0634446020519725e-03  1.3696118606428172e-03  7.5538204182938173e-04  1.2835811782646402e-04  6.0883102962243928e-12  5.5179063527356425e-06  5.6377294167186459e-06  4.2109130276711591e-10  1.4199159909724879e-05  1.0502420939122796e-18  1.0958959607586419e-13  -7.6882732490781007e-17  -2.3220022635853582e-18  -1.5839670936568011e-15  -1.0892960761878835e-14  -2.2805803142095295e-08  8.5605585845314678e-06  8.5346497278046814e-06  8.1973356890970874e-06  1.7582989033765066e-07  6.2027823136268898e-06  1.0143625431279099e-05  1.9074429905055845e-04  8.5592215123572296e-06  1.2849868844724613e-04  9.4662414172955297e-06  2.8134634582443751e-05  8.3939971417897897e-06  -1.2878434250900203e-14  6.4277205578565984e-04  5.2901556336980445e-05  3.2382143691981443e-07  4.5257013506395466e-10  3.5000461858138393e-11  7.9203318308041523e-04  4.7829482835620312e-06  -8.5137406065281896e-17  4.4957534822117156e-16  4.1778372245046753e-04  1.9183026555705801e-11  6.6093341292915166e-06  1.3705748716537286e-15  7.6139450406286500e-06  6.0619804832805785e-16  2.9285054117845810e-04  1.1621913921512853e-05  8.7400513453959709e-04  1.0501957830103697e-03  1.4348438618844958e-04  -9.4306789381134106e-15  4.2586648941031160e-13  1.6613334541561679e-04  9.9463238588677752e-05  2.9020459306927220e-04  1.0025576045213365e-03  2.4467071515642545e-04  1.2109349536376650e-05  -6.0369856034215101e-15  1.0342882812828232e-03  1.0535001972741646e-13  1.2738393647868352e-07  1.5405696850183127e-05  3.7580691268922814e-04  8.4894288654137574e-06  7.6568994862059054e-07  1.2050596278990881e-05  1.6806267112784867e-06  1.3792358597086298e-04  6.0399009892407596e-04  4.1260468945651224e-04  2.0343064281008200e-09  8.1057287145861379e-04  7.0172129157223162e-04  7.8736615789634374e-04  1.5343209180872705e-05  3.3778254064672495e-08  7.8271808027560311e-09  6.8454602099696007e-09  8.9573765057647170e-12  8.8501681119534724e-06  3.6216491609243995e-06  1.0580604994558582e-04  8.9656222054821690e-04  -2.4137637131928910e-15  -2.1064294601321554e-15  -1.1242456560148402e-15  1.4122272648530317e-03  2.0441312974836262e-10  7.1863363675202722e-07  1.1955576722751781e-03  7.4663579905382145e-06  6.6457065699511292e-06  5.0735007312000112e-07  3.0774250185614048e-06  -1.0736662319571756e-14  1.2014976368578726e-11  9.6834932910389981e-04  2.6338483473167622e-04  1.7150365155002432e-08  8.6766262695691981e-06  8.5533552593925902e-06  -8.5251695578765597e-15  3.1149417242265915e-04  -4.1162151143479845e-16  -4.4453354706665681e-16  1.2418846057126910e-05  5.7562072800441721e-06  2.7277197576570721e-04  7.4437679258665971e-06  7.9572923200570444e-06  -5.0743165442036271e-18  -6.2333103602017490e-18  7.9311325863336145e-06  -3.3849693557902426e-17  -3.6866482015716010e-17  -1.7607720967597295e-17  4.5653658564871941e-04  -1.4273674061436434e-14  -2.0830762852147498e-14  -2.9353283474761585e-12  -8.9120118937329141e-12  -8.4953172041931516e-18  6.6200762300477819e-06  5.0341157047512796e-05  8.2519799039513023e-06  -4.5746124175978550e-16  -2.3129412512435565e-14  -4.9530741073051988e-14  2.3138390154744139e-10  8.2974402870460816e-06  3.9850934265656869e-05  3.1459728816041259e-04  1.1450724770666150e-03  2.0292451207117452e-04  -6.6355250032856688e-18  -1.5117307818434663e-16  8.3875086254427526e-06  5.4230464555996511e-18  5.5757059899045401e-05  2.7369365699365313e-05  8.8768169767058207e-06  9.1779660136131662e-11  1.2686814417008248e-06  1.4421590633269200e-03  -7.7330066071738275e-16  2.7077194920692399e-05  -1.0208827034240998e-13  6.5969360310970856e-05  -2.5775396157516450e-16  1.1282495667546363e-03  1.8616799923702359e-03  -1.3099000889411508e-17  -7.7322949906716574e-15  1.6403915960806264e-12  3.4388780783424863e-05  2.6066797475522939e-14  1.6831066956841584e-04  -1.2590988800722181e-15  1.0693948627677589e-03  1.9140245167886219e-05  1.2889704696030416e-04  -1.1026113558535484e-16  4.1106086840536175e-05  8.5699196202303086e-06  9.1284014921336826e-06  7.4387444790772430e-10  8.1980219599178951e-09  4.5291558333335956e-04  -6.1287629230843153e-16  5.4333381810055910e-04  -2.9873773067097473e-16  1.5034391878158253e-07  9.7940878952538580e-04  6.0036707407492557e-06  2.6729431829491551e-03  7.8998903988469738e-05  7.1176161863592693e-06  8.5470573875681672e-06  8.6660330532417602e-06  1.2920589484934079e-10  1.4981033089276169e-12  1.2148749471854995e-04  6.6923445276974737e-06  1.0691058851692584e-04  4.0488275383392772e-06  1.0876584622746415e-07  4.7164725125272077e-14  4.5372391723963814e-04  8.4693103728761298e-04  4.4034397016355072e-12  4.3276123065943045e-04  5.0536379375460292e-05  9.8549339616127946e-06  8.5597158028731435e-06  2.3689309676502499e-04  -2.6629447604585933e-14  1.0927093337673585e-03  1.2739324227036512e-04  1.3488123188560455e-04  9.4432191582712872e-07  2.8329336092218417e-04  9.4986941660325590e-04  1.8424600545754654e-05  4.5971571905608811e-07  3.0160632901016700e-05  9.2127439508750416e-15  6.5186795370896435e-14  -3.6200529347443923e-10  1.0959287745963288e-12  1.7528066799615566e-10  2.0173824910477517e-09  8.6222087909119233e-04  1.1464558767905926e-04  6.0981953037340707e-05  1.2255403522348971e-06  3.2571357442327407e-08  1.4517314740261419e-05  6.2433712037370568e-11  5.8893328635746118e-12  9.2203041483211712e-04  2.3140541691155528e-10  1.5792094102638063e-04  6.1155488702565588e-04  7.1388833634864962e-06  6.6361143976271467e-04  -3.0616392473560807e-18  -2.3842170788675819e-17  1.6927224916407879e-04  2.5112859211967619e-05  1.3440696056334890e-05  -1.6039085391849587e-08  2.4730647072725617e-06  1.1941746916613930e-04  1.8275286801604702e-03  5.5339614366813789e-06  3.6033415423596224e-04  2.5303841562680611e-04  1.0847642499064534e-03  9.4287807759643319e-08  8.1711301696494010e-09  1.5792908536685655e-04  8.3749985554299508e-04  5.1244844271152552e-04  4.0530506181082811e-04  7.6362873820107517e-04  8.4589709986238786e-05  4.7994989679612469e-04  3.4989343415862186e-04  -9.0863697752917793e-15  7.7772083103684502e-09  1.3558003176261157e-05  6.6255429892368358e-06  -7.7272866983114667e-17  9.2804017494121617e-05  -3.4029068807202766e-15  -1.6323656520935660e-15  1.0214164969130220e-03  1.0883242775653133e-03  3.1790244348160431e-04  -8.7261374356163795e-15  -1.3677321069407506e-17  6.9937755164895383e-08  -6.4556429182801219e-16  8.5285661604833772e-06  2.2875073048390440e-05  -2.6927365587342869e-16  1.0638569372774344e-03  2.3584049969011312e-04  2.5730195301967499e-04  2.8094839030144551e-04  -6.7824731963503943e-15  -1.5157576449637801e-17  1.6664938490497919e-05  1.1955251298804899e-05  5.8923796437261285e-04  1.4650092755385912e-05  -1.5617208488320449e-14  5.6588516723160417e-15  8.7290897922151068e-06  5.4582395703990821e-05  1.0408114022009655e-03  1.5598384698141008e-04  9.4415576843315760e-15  2.0210315600644358e-05  -4.7066740295466547e-17  -5.7332547131207708e-17  9.6769564550029373e-05  2.1302360869969940e-03  9.2781226223114899e-04  1.1392353136483236e-03  -1.4418975436222089e-15  9.6339878574947705e-06  2.2473831443663161e-03  -1.3417764713371477e-16  7.5043392317804232e-13  1.0447196063260384e-09  -4.5936453134457540e-15  -3.0903613740127735e-15  -2.7580978554260393e-15  -1.1926053338522180e-14  5.6417927313679434e-06  3.0250938791387649e-04  6.1024384143701187e-04  7.1128370574861418e-06  1.1584363192839321e-03  4.7481746438461452e-04  -2.0296129738124375e-15  1.5973412146673962e-03  1.1119877722732803e-03  1.1611256790514813e-03  1.3013929818067921e-03  -8.6873540474732076e-12  3.7667700198305861e-05  3.9772135343610495e-06  5.6568399974089314e-17  3.1246008159459508e-08  1.8399348981924195e-09  7.4972614920267315e-04  8.4416086090076487e-06  1.6875835424150622e-04  -1.2034620097723977e-16  2.9257180843224379e-08  -1.2565868186357029e-14  -2.3470236405370948e-18  -4.5491406418327112e-18  1.5555446107552245e-05  -6.8806530013691696e-15  8.4932827788479567e-06  8.5114921290314964e-06  7.7938521228104822e-11  5.7814666239660499e-04  -8.4338575810867220e-15  2.9677587737938159e-04  7.0108282969847855e-04  1.3400489121091574e-11  2.8636972684772237e-08  1.6191377540624074e-03  5.0478186217652240e-10  8.5176647169586474e-06  6.2357617428580757e-06  6.1989370682987446e-06  -4.5320750688796323e-15  5.4523493427926898e-04  -7.0883198390598017e-15  9.9136531715321971e-17  3.9761472997694417e-09  2.0139681330797143e-10  2.9511658987913685e-05  8.2256336762648861e-06  1.7717570903423460e-05  -5.3920961527112793e-17  -2.9761306935703738e-15  -5.5481864005065179e-15  1.9218503066441817e-10  6.1480743449600459e-04  1.8487753796468737e-07  2.4814536622388680e-12  -1.7739465043502696e-18  4.7465749958682206e-13  4.2965357278920691e-12  8.3063195688283062e-15  2.5404791264877651e-13  1.8691100692869922e-06  8.2955759724080864e-06  6.1708393734977533e-07  -1.7273759613880023e-18  -6.0768673808522942e-15  8.9461623278535110e-05  -4.7273863860264669e-17  2.7249949127077021e-04  7.1305680389429141e-04  1.4716795794759557e-09  8.9077691905812086e-04  7.0130458068947614e-04  1.3901878142015798e-06  2.5510319865814223e-05  9.3379748603280536e-05  2.1098863855393426e-10  -1.0831899356516673e-17  7.7510697228231206e-06  2.5309350805732707e-05  7.0219463993022443e-04  1.4963430898359437e-12  4.1879501657070956e-05  -1.7264795471854653e-17  8.8527256035132132e-04  1.8599008454023922e-09  6.4828534642214592e-04  -3.8003995780422864e-18  8.4100032234152591e-06  3.8604972978770705e-05  8.6308611693641182e-06  7.9757535725653501e-06  -4.3031872486590582e-18  7.0818266780304992e-06  2.4626988693860218e-15  4.3021351837995201e-04  6.8599809084953710e-05  6.4155141275744627e-06  9.3941081610407790e-05  2.2598581850452373e-04  4.9217868121750440e-09  8.4068223888628894e-04  1.4418906630356193e-05  2.1908926279149759e-03  5.3906452118280939e-11  4.5128283726723899e-16  6.3694519153029725e-04  9.6670522910514609e-04  5.3430879546491816e-04  -4.6779822561282998e-15  3.0585583835527239e-06  5.7543003678346195e-04  5.0498260700771618e-04  4.4030288454064467e-04  8.9953059075964658e-05  -2.9506343915131576e-12  1.7913233494776374e-08  9.2151701534989581e-12  8.6194512504396891e-06  2.0659597044655434e-05  1.0371780381378509e-05  -9.8363620321205646e-15  -1.0850838101981443e-14  -6.7079707105143269e-15  2.3956916402158519e-13  1.2578260289698184e-14  1.9820517402892852e-05  4.4330540818685812e-06  2.2391552917015617e-04  9.8943384410400018e-12  -5.8132074063695526e-15  2.5165494099323082e-05  2.8385923323221361e-05  1.1656309825745503e-04  8.0178783336848393e-05  -1.5316103474976668e-17  3.5660615674065489e-05  8.3538103117712116e-04  1.5254192490320234e-03  3.7542675992248447e-04  1.0115527367184599e-03  3.6730996288242581e-05  1.0376883355610306e-04  -1.9737844607657089e-15  1.2419584286737413e-04  8.0718032847178189e-06  -2.2974580672596686e-18  2.9565564288999832e-04  2.7561688640176898e-05  9.9278380681605988e-07  4.3981393698652521e-06  3.2132477161910370e-07  2.5094048702068545e-04  1.3858790432830743e-10  3.0020595741363110e-06  6.4879344408587511e-04  -1.4357842370520936e-14  -1.3190802658179834e-14  -2.3801964317575167e-17  -7.9940037421765882e-17  -6.5459055754657915e-15  2.6136842453409284e-11  3.7168347685482388e-05  7.4301793320427146e-04  1.1005291910877954e-03  -6.2341581847176976e-14  1.8289790532658597e-08  3.6202617447716069e-04  -4.3342448235823788e-16  1.1563002775679316e-04  1.8320667588391161e-06  4.0661721341916375e-10  7.4169197910354682e-12  8.0052409005412928e-06  6.7701799603766860e-05  8.6438049485792307e-06  2.3547942019397689e-04  2.9130114922666213e-08  -3.1532199288604865e-15  2.7354969854782933e-04  4.6274966548794311e-04  6.5171652728309167e-06  5.9631823464294661e-06  8.8850704627677527e-05  8.5472886665598918e-06  5.3896597375886754e-06  5.5006114099372873e-08  -3.1442810870538430e-16  -6.2887302381990821e-16  7.2136124487391558e-13  1.2183483307532721e-11  2.1513655964709870e-09  8.5017738671631511e-06  8.5598195323838507e-06  8.5609810499419396e-06  7.5567777365501267e-06  -7.8339908708706792e-15  8.3725781101726216e-06  -1.3415807787921162e-16  5.8914019265024308e-06  -1.4037174376590698e-14  -2.2783563481762995e-18  7.5857616095706870e-06  -1.0365623888606545e-14  -1.1380224510011990e-15  1.3231559962139288e-12  2.5750707068887999e-10  6.2843119202882019e-04  2.8252450161524583e-05  3.0761635157160949e-05  7.6993473426022370e-05  1.1213925492862109e-04  8.5587355466157335e-06  2.0596200213081507e-04  7.5224447205570940e-07  5.8077855774760353e-06  5.2070257487585405e-07  1.1256682352547019e-05  1.2217063788137492e-05  1.5984160372329745e-14  7.6257483252250101e-14  7.9913014709283984e-14  7.0504431719796954e-04  5.7336276182098737e-05  6.9373202976624565e-07  -2.5412869329428506e-07  3.8978471801901596e-06  -1.2206346751525363e-14  5.7519917215432633e-06  8.2296344637690679e-06  2.5000405601585716e-13  8.5651156985699570e-06  8.5556331049978739e-06  8.5556095974373552e-06  8.7563167825143680e-06  -1.5366894063447265e-14  1.9199881313680517e-03  -1.7989698372171568e-06  4.0874368706195156e-12  8.4356866125144601e-04  2.0367229963694052e-10  1.7941673405472323e-04  6.1763793074656373e-05  1.8909571363726537e-09  3.8579399854723051e-09  8.6251627290445148e-06  5.2536299241613734e-12  2.4754083877725547e-04  1.7845079565519213e-03  -5.2223758979107565e-12  3.5543277893704598e-04  -5.9760985934948152e-15  8.2583685882202352e-04  1.0062007750045012e-03  6.6299559843850469e-04  -5.6955968387239984e-18  -1.6295458373390914e-16  2.5528061711284736e-13  -4.8422338366723850e-15  1.3370613758153119e-03  2.5073122448183990e-14  3.5708376248424887e-17  6.0310607320848122e-09  6.8961405889657367e-04  2.1746562959108813e-13  1.0318442191988425e-03  1.0057156959394517e-06  1.0542854924274719e-03  9.7469122390012942e-04  6.8058909145306323e-07  9.9603748586419804e-08  5.6463056473065716e-07  3.2904811064347179e-08  8.5627523612603050e-06  6.0718861029970017e-05  1.0293673385527921e-05  5.1038219480466734e-05  8.4155822855538634e-06  8.5301245558649402e-06  3.3139722155367348e-05  6.6106288479517601e-06  1.1132757411669908e-03  7.8372043303679372e-04  5.3098224240703143e-15  -3.3094042123847615e-16  1.2381124392287458e-03  2.9028511242703826e-04  8.1256517269835962e-06  8.9463721059168449e-06  1.6135284411128557e-05  8.9454386658679580e-06  -3.0054632504094035e-17  7.2371566572877504e-06  7.5224179328552598e-06  7.9530817415839622e-06  7.6355042120375875e-06  7.8465428942318233e-04  4.3767485716898610e-05  5.5128557941416259e-10  3.1754090056011764e-07  9.5064781212211265e-08  6.6581720286270439e-05  1.0557883711148861e-04  1.4205682750630575e-16  2.4824593238390762e-05  1.0233734622621236e-05  -9.5036742756150489e-17  -2.4024393403664501e-15  8.4546270942303329e-04  1.2486780197178316e-03  -1.7808183274588170e-16  1.1294774465237260e-03  2.7170661114723300e-04  5.3946411868146941e-04  6.7661376504907339e-06  2.4668186321035569e-16  8.0110906797640263e-06  6.2691507381002869e-06  5.8787108470158540e-05  2.2001127257416475e-04  1.5204546272242636e-08  2.2215006717991135e-04  6.4540039926179070e-04  8.4122626035006891e-04  1.3683148849664428e-03  -1.0602572138268006e-17  2.9763795467788461e-04  5.9849597623809622e-06  7.1949576348519406e-06  -2.5907931379324199e-14  -1.3875918136808975e-16  6.1461359462043857e-06  8.6837868588097162e-16  -1.0917519293659531e-17  6.0057417382092142e-09  3.9827958081446404e-04  -8.1228142953862572e-16  1.7971402264684879e-04  -6.7386076670287971e-14  -5.5903780181207405e-17  1.0531247548484167e-03  7.