<?xml version="1.0"?>
<VTKFile type="UnstructuredGrid"  version="0.1"  >
<UnstructuredGrid>
<Piece  NumberOfPoints="6486" NumberOfCells="12696">
<Points>
<DataArray  type="Float64"  NumberOfComponents="3"  format="ascii">0 2.5 0  0 0 0  2.5 0 0  2.5 2.5 0  1.25 0 0  2.5 1.25 0  1.25 2.5 0  0 1.25 0  1.25 1.25 0  0 0.625 0  0.625 0 0  0.625 2.5 0  0 1.875 0  2.5 0.625 0  1.875 0 0  2.5 1.875 0  1.875 2.5 0  1.770833333333333 0.7291666666666666 0  0.7291666666666666 1.770833333333333 0  0.9375 0.625 0  1.875 1.5625 0  0.642361111111111 1.163194444444444 0  1.341594827586207 1.883979885057471 0  0.46875 0.46875 0  2.03125 2.03125 0  0.3626104797979798 1.513178661616162 0  1.381740196078431 0.4564950980392157 0  0.9375 2.172619047619047 0  2.172619047619047 0.9375 0  2.096354166666667 0.4036458333333332 0  0.4036458333333333 2.096354166666667 0  1.684027777777778 1.163194444444444 0  0.3418803418803419 0.8693910256410255 0  1.642742622813391 2.162164207604464 0  1.275619849389031 0.8465650753054845 0  0.9136284722222221 1.434461805555556 0  1.732437511238546 0.3406962303960658 0  0.9714402568595876 1.029779313093998 0  1.52281746031746 1.485615079365079 0  2.1875 1.71875 0  1.06819722569879 0.2997236128493951 0  2.136114211309524 1.303478422619048 0  0.3125 0 0  0 0.3125 0  2.5 2.1875 0  2.1875 2.5 0  0.3200021620376328 1.192323085056694 0  0.6738456129277992 0.8304377375553881 0  1.757891808928991 1.861952730357003 0  1.5625 0 0  0.9375 0 0  0.3125 2.5 0  2.1875 0 0  2.5 0.9375 0  0 0.9375 0  0 1.5625 0  0.9375 2.5 0  2.5 0.3125 0  0 2.1875 0  1.5625 2.5 0  2.5 1.5625 0  0.7448220909826522 0.3003573636608841 0  1.027298850574712 1.871151477832512 0  1.331260495098891 2.197262878816185 0  1.207917681892289 1.582765010956622 0  0.4339993447432606 1.801186844743261 0  0.6337298768939392 1.443093039772727 0  2.049851190476191 0.6826636904761904 0  0.6584821428571428 2.219122023809524 0  1.89575676467455 0.9798457973793544 0  1.437570562095628 1.059380588255917 0  1.502090052505845 0.6987070896496241 0  0.2040860661083546 1.705323965099331 0  0.2083333333333333 0.46875 0  0.5070952039991439 0.2211150679997147 0  0.6916302856529919 0.5813591430410241 0  2.265625 1.953125 0  2.2265625 2.2265625 0  1.886424081252096 2.243391360417365 0  1.40625 0.202164758520858 0  0.2269345238095238 0.2269345238095238 0  1.152730869673694 0.5225850378741401 0  1.885631899587912 1.312095130148776 0  1.614808884009367 0.9049784971014416 0  1.890095442220658 0.5126535558463003 0  2.323168682795699 0.46875 0  2.268811725689575 0.2304742875213018 0  0.6002389442105756 1.967426444210576 0  0.1768313172043011 2.03125 0  0.2311882743104251 2.269525712478698 0  2.03125 0.176831317204301 0  2.280262553344767 0.6954945504579233 0  1.979219539285994 1.809922269642997 0  2.336309523809524 1.09375 0  1.09375 2.336309523809524 0  0.9314042474388009 1.662973812215543 0  0.1634067999087722 1.40625 0  2.337090640094896 1.40625 0  1.141616997467638 2.069311773587991 0  0.46875 2.338939559681489 0  1.542440307908715 1.734944797244472 0  1.556713687786879 1.956977865354753 0  0.8264238995344066 1.975424467820646 0  1.466326331454725 1.275271369760862 0  1.655675324257095 0.5444159974393489 0  0.3385416666666666 0.6479255698005697 0  0 0.78125 0  0.5236073939200119 0.984090461540625 0  2.091665741047893 1.519793517904215 0  1.71875 2.5 0  0.5356538886262603 1.623137930505009 0  0 1.09375 0  0.1932884281517095 1.015625 0  0.8569313582417669 1.2198915584249 0  0.8876981284879677 0.8329884081524883 0  1.115618488474214 0.7219586973356271 0  1.186950366204949 1.043465130075318 0  2.057459118787237 1.110823087309335 0  1.830651283878689 2.049810069572418 0  1.689107969301489 1.367247437031697 0  0.4921048768039656 1.298643370653124 0  0.8213975694444444 2.336309523809524 0  2.03125 2.5 0  1.049729400480002 1.283723261332814 0  1.308101375801673 0.6489479469700392 0  2.5 2.34375 0  0.4968777175037714 0.7562964879736076 0  1.40625 2.5 0  1.501347663534097 2.307027627307738 0  1.602813712048603 0.1926218191360736 0  0.8393082906308107 0.463778306132633 0  1.682663349152719 1.598471865581041 0  0.7774174680851571 1.560004941327907 0  1.554204170364662 0.3898593897892066 0  1.842184459051087 0.186443880058197 0  1.358107417651776 1.696381759610015 0  1.18859291992392 1.77598670078022 0  0.1875331222687418 0.7609599743339348 0  1.339536743965101 1.422080365801479 0  0.7788179348750389 0.9955343414928611 0  0.9062978492805438 0.1919636509126373 0  1.256007360640958 0.3160320559396114 0  1.09375 0 0  1.174986727221844 0.1594990293443933 0  2.34375 1.796875 0  2.318026474511116 1.589177949022232 0  2.34375 2.5 0  1.672742954892153 2.332882724550692 0  0.2683637361947215 1.874801596909639 0  2.174770749820102 0.5581009131310781 0  1.443279522965991 0.8870068372898454 0  0.3385416666666667 0.3571428571428572 0  0.78125 0 0  2.060421048269335 2.314363248763811 0  1.088078737088509 0.8967352118723447 0  1.087825368444708 1.454931510884769 0  2.018308232129541 0.8548495425854904 0  1.943987311736842 0.3246298523011434 0  1.71875 0 0  1.85337849796276 1.144833312386208 0  2.3486328125 2.1044921875 0  1.407588788651747 2.042968789119587 0  2.336309523809524 0.865366648092144 0  2.34375 0 0  2.5 0.15625 0  0.15625 2.5 0  0 2.34375 0  0.1638044648294291 1.242263417405867 0  0.356216654757926 1.032569427322806 0  0.3188217956111817 1.355736727000647 0  0.5924956460852111 0.36112522004736 0  0.6594216488965849 0.1603472116132387 0  1.841804599497131 1.72214349266521 0  0.15625 0 0  0 0.15625 0  2.115898634821499 1.894570904464496 0  0.7821877980253907 0.7129993435924866 0  1.003820447087786 0.4516053462784233 0  0.477562948779147 1.138333049293613 0  0.719493678605015 1.305655360135975 0  0.9772457618587566 2.020350128938537 0  0.8764738248887107 1.826219722709673 0  1.254787875123819 2.339010653832026 0  2.343597354852534 1.249982759769001 0  0.78125 2.5 0  0.46875 2.5 0  2.5 1.40625 0  1.09375 2.5 0  2.5 0.78125 0  2.5 1.09375 0  2.03125 0 0  2.5 0.46875 0  1.40625 0 0  0.46875 0 0  0 0.46875 0  0 1.40625 0  0 1.71875 0  0 2.03125 0  2.5 1.71875 0  2.5 2.03125 0  2.005424054645407 1.653223486966518 0  0.1538730573856537 1.559850281736677 0  2.33984375 2.33984375 0  1.166539506212474 1.922878979538754 0  0.3914885633949916 1.65887232812171 0  0.5795503163042564 1.766243562569382 0  0.399533125920212 1.946786875081388 0  0.7866324979014098 2.127719094551316 0  0.3654683023546834 0.1495701132219454 0  0.1527388747131078 0.6116379440619215 0  2.013737577140188 1.391056634712135 0  1.17635437372994 2.213329084238133 0  1.737118141866284 1.010577140843115 0  2.200707118087222 1.164723314085963 0  1.697018908736685 1.993548551451517 0  0.5387621649009668 0.6070503962352419 0  2.032805785855952 0.5330427622570983 0  1.082699501358059 1.667818725183932 0  1.503819781540653 0.5468420196858188 0  2.015409142866072 2.175941657590429 0  1.752057611265444 0.869642097111018 0  0.612251684107783 2.356045720700959 0  1.902817102342857 0.6607642211999982 0  2.159616561739693 0.7867739969338844 0  0.5120038350106624 2.197302352398502 0  1.888200216011548 1.919501662489862 0  1.495909909726654 2.16028358757309 0  0.489139876703609 1.443203008943564 0  0.8819175670410521 0.3301172743913011 0  1.882591144370812 0.8155965192707721 0  1.133979796994841 1.172526771862882 0  2.206217447916667 2.084147135416667 0  2.20361328125 2.36279296875 0  1.395746985657004 1.556054166359645 0  1.704383111516207 1.734750450338683 0  0.9575737847222222 2.36274223823052 0  1.035150984253136 0.1302833343179028 0  1.383966125325753 0.7651479963479179 0  1.64003252158672 0.6824316405528895 0  2.22550785055421 1.487078576356817 0  1.760964431499756 1.48495222505201 0  1.276460980673788 2.004207003584658 0  0.1341477688427096 1.828777507920502 0  1.542261434180652 1.155296658359034 0  1.334627911613854 0.9696897472490321 0  1.30794231473696 1.119420615785191 0  0.7028260459857245 0.4438906910721139 0  1.625757433094055 1.84268057552138 0  0.9818707849053143 1.165603626132254 0  2.0086489901463 1.243134585689553 0  1.934584460420609 2.374094051915812 0  1.798434376789567 2.38671361912528 0  1.206314791201715 1.382064292497919 0  0.6333752893366955 0.7023738550008095 0  0.7796219811205605 1.42573253164258 0  1.564399711917382 1.026040828857629 0  0.3385416666666666 0.4889012896825397 0  0.1041666666666667 0.390625 0  0.989112246382566 1.543537365516289 0  2.025724425454636 0.9846960595520872 0  0.6602885475034063 2.086117390485779 0  1.607130551925032 1.267198646640915 0  0.1317864544877056 0.8896173683400176 0  1.755387840017567 2.230364320056445 0  1.301540702984401 0.1216289692748247 0  1.433170657577442 0.3331052752740999 0  1.500459610550388 0.113513924782439 0  0.6494291520606965 1.029586599619295 0  1.010146149868299 0.794897284196169 0  0.3700844198238017 2.235390157870766 0  0.3360891767780704 2.36656279435396 0  1.876856241037701 1.437150669863757 0  1.778674102957329 1.245979347269706 0  0.5472829890977179 0.1005517127039925 0  0.4669074189005698 0.3416784232954367 0  1.472765289289269 1.850899166481903 0  1.555853593327178 1.608452097912802 0  0.6708955559113426 1.646561631116984 0  0.8164699620322933 0.5924479455478063 0  0.3167738989468366 1.758696809749795 0  0.2788007305565096 1.605499483471246 0  0.7821720982350511 0.181524936294752 0  1.376812251214195 2.313340247908297 0  1.785652202614777 0.5962261755537186 0  1.761467296310972 0.4679567244718574 0  2.2265625 1.8359375 0  2.3828125 1.9140625 0  0.5279531607054191 2.071552361614785 0  2.397573269551114 0.234375 0  2.383578172599618 0.3589298466020009 0  0.1024267304488855 2.265625 0  0.1164218274003825 2.141070153397999 0  0.2696857594953064 2.135405441512016 0  2.164961300137334 0.1375322943529536 0  2.137757548369486 0.2724194778647587 0  2.238873711826398 0.3626419179496562 0  0.1001414910226386 0.234375 0  0.2176339285714286 0.3478422619047619 0  0.2503620791333544 0.1061694061057066 0  2.336445461915368 0.1250451055247424 0  0.2154004640409726 2.3918124
[...]
<PointData  Scalars="f_16-3"> 
<DataArray  type="Float64"  Name="f_16-3"  format="ascii">2.2646512217945443e-04  -2.5536632782844888e-09  -1.1755360502874623e-09  2.6439216682032390e-04  -1.8889567258278699e-09  3.7646444769729024e-07  2.4459252640996105e-04  2.2645816257385113e-04  2.9207692501515985e-04  2.1381433060780418e-04  -2.3473287747197198e-09  2.2650522836141506e-04  2.2646525624470332e-04  -1.0983420546617126e-09  -1.5092561184522120e-09  3.8418390488492287e-05  3.8310875205080548e-04  1.0262072606738994e-07  2.4881601829669132e-04  2.2263117816239170e-05  1.0435341352087299e-04  4.9902791773450534e-04  4.2959209047487240e-04  1.3352809329288188e-04  2.8068060901929658e-04  2.2874342063986542e-04  2.2009268645222459e-08  2.3747132139416294e-04  8.2443777820214566e-08  -1.3531765547672019e-09  2.2649312723571537e-04  2.5002135761028635e-05  4.8681635084932225e-04  4.1184045592099070e-04  2.0873240237867707e-05  4.7792390947833601e-04  -1.5076802616699046e-09  3.4769221402176182e-04  2.6382541226905855e-04  5.8997720900827292e-05  1.2335836923445480e-08  5.5543381478671694e-06  -2.5631167641015103e-09  -2.1337074096417088e-05  1.3770148063656657e-04  3.7571471904675196e-04  2.4841350625868608e-04  5.1410867245874276e-04  3.4307943835451597e-04  -1.6871509503879936e-09  -2.1007746648685916e-09  2.2646524348450138e-04  -1.3285159822080469e-09  5.9351461878159035e-09  2.2630758137774215e-04  2.2646473457777508e-04  2.2799280602258962e-04  -1.1517826388670640e-09  2.2646543071215764e-04  3.0302460844390463e-04  5.7798543990995609e-06  2.1467217621067290e-07  3.0931714309250343e-04  3.1051005160191784e-04  4.8123644879363687e-04  2.2704438509675180e-04  3.0107675142636471e-04  3.2755687998193931e-09  2.2692514257945657e-04  1.1685443092916220e-06  4.4962310834429614e-05  6.8059853980146595e-07  2.2648455993786232e-04  1.2474036791394918e-03  1.9717525544762694e-07  8.4520116006825115e-05  1.1815803171917782e-04  2.7457598593929851e-04  4.0396427758924292e-04  -1.7381481825327247e-09  9.0964319160272167e-07  6.4210595149912057e-07  2.3960102462835784e-05  3.8809582876970198e-06  -7.3164613301559030e-10  -1.2208710746925466e-09  -1.2707587796273634e-09  2.2796846136433727e-04  2.2646581039556741e-04  2.2646560318809704e-04  -1.4114805918588621e-09  -4.3114173171299967e-10  1.8377963810444888e-04  1.8674583626809886e-07  2.4061233285745671e-04  3.5553917259913099e-04  2.2659558114548331e-04  3.9631038746650044e-06  2.8827085123661329e-04  2.2647813825890902e-04  4.0107666146414278e-04  4.3494922237800632e-04  2.4073395226204347e-04  1.4229216816865966e-04  9.3814200322513912e-09  8.8738322993391051e-04  2.2538757745195744e-04  5.7331838899189410e-04  3.0566905966704243e-05  3.4736798953726036e-04  2.3624629291768058e-04  2.2642086501949225e-04  2.3842040771710748e-04  5.5135167739522189e-04  1.9843036015863646e-04  1.6942379171793750e-05  1.5924914959754069e-04  1.6119955032990154e-06  3.8292015613796353e-04  8.6801980758299414e-05  2.8735988428940900e-04  2.2776537042287030e-04  3.9571561337576884e-04  4.8131909499478685e-04  1.3892455241973440e-06  2.0683767637672711e-04  7.2211842352130494e-04  2.6681270175558892e-04  3.3058929531620986e-04  -1.6555341655883798e-09  4.3304721138838393e-06  2.2825583288214071e-04  3.1949756653426852e-04  -4.5033673689956977e-10  -1.5124158835084683e-09  4.5941778233072353e-04  4.2134943237715069e-04  3.6601278028374363e-04  3.5157471833329812e-04  5.4066156740980936e-04  2.1750205814924999e-10  1.3797626689617675e-09  -1.9914866612174615e-09  -1.8255907910098869e-09  4.5002685566111646e-05  1.6123055982605865e-05  3.2201190779453727e-04  3.7541438100840665e-04  2.2648117754136014e-04  -1.1828767981890628e-09  9.9986003303378937e-06  5.7024719764647109e-05  -2.2024793401177926e-09  3.7691645322323036e-04  1.0348193528920666e-04  4.9974872872073962e-04  8.6904071493455125e-08  -1.4476121144905030e-09  -1.5992663991512590e-09  7.7730978462826322e-06  1.5403025206946463e-04  3.9178219889972359e-04  5.6428355159898191e-09  -1.2510961421626849e-09  -1.1678072830169053e-09  2.2646511822902100e-04  2.2646537480698438e-04  2.2718806644668682e-04  3.2782635958068177e-04  2.3118351393843593e-04  5.6437710233682744e-06  2.5257436444451244e-09  2.1015903480015990e-04  -2.4985660369478186e-09  -5.5913868395646844e-08  1.5849376066288175e-04  1.5391560268437606e-04  7.9794223135531275e-07  3.6795582640201187e-04  4.4406960188000851e-04  2.5811773477080879e-04  2.7270317229471865e-04  2.6197785833990462e-04  9.0335996200956801e-07  2.2680122220689037e-04  2.2646825757269965e-04  1.5696595436603612e-06  2.3275502889125960e-04  -5.5652575446578531e-10  5.4962319410781491e-08  -1.4216956147860392e-09  -1.1374050599998888e-09  -1.7775824023670052e-09  -2.4840335115961607e-09  1.4850874367819685e-04  2.2646329705819395e-04  2.2646511499594749e-04  2.2646535256312599e-04  1.6190018456659445e-05  7.9946764878548963e-05  8.9636151944821559e-05  2.2649031581092018e-04  2.7135336344203130e-04  3.4691115290560076e-04  2.2752998826875548e-04  2.3169100802610933e-04  2.2655696010517350e-04  2.3033150328970680e-04  1.7352104632071823e-08  5.7199768957783123e-04  2.0765296112764139e-05  2.6651920255798281e-04  4.8333405712018630e-06  9.5018261233427176e-07  4.1375933816094367e-04  3.4333730507037682e-04  -1.1403471528887397e-09  4.2896347885457489e-04  4.3909527021018758e-08  3.5267242236388269e-04  8.3373779783096172e-07  2.2656074868758846e-04  8.6279950431232063e-09  7.9235522016033439e-09  2.2654385899726094e-04  3.0001789042666445e-04  3.7777253925835939e-04  2.4780524628818438e-04  1.7409427518069800e-07  1.3525282832255611e-07  3.2930806484096100e-04  2.1476506484044959e-04  3.3900999039990546e-04  3.9622616890391869e-04  3.0645928214667785e-04  2.3040546454042402e-04  -1.9091974898919158e-09  3.9293668118007739e-06  1.4670836978169402e-07  1.3096149156845657e-05  1.1694900282857306e-04  3.5851559466249682e-04  2.2646628230240054e-04  4.9514697691073440e-05  4.0269379938720517e-05  1.3269326479744493e-04  1.1705162783197280e-05  4.0111867605569992e-04  4.6938046501197498e-04  7.6476185585470868e-06  4.0106785917454072e-04  3.8855166873619224e-04  4.3059363496706829e-04  3.6812247336470347e-04  3.9829932730655763e-04  1.6521859319865092e-05  5.4376632910698071e-04  1.4162986172451670e-03  4.4900932014093584e-04  4.7217311266681386e-07  2.2770873993372328e-04  7.3377284425170101e-05  2.3832003444334535e-04  4.1011031963959142e-04  -1.8450811319138344e-09  -7.0185362613655043e-10  -1.7232384168931100e-09  6.0888545889839767e-04  7.5161275873988429e-05  2.2646978780732529e-04  2.2646604957037443e-04  5.3317658975284169e-05  2.7042395875995054e-05  -1.5939420379443813e-09  1.0824992800888149e-05  4.4603147764315083e-04  3.2077328313371884e-04  2.5552478358954186e-04  3.9697735350763066e-05  2.2657687868440576e-04  2.2668405593777197e-04  2.6509557473863740e-09  2.9368015503066294e-04  7.4353310642715726e-09  -6.9741243047845113e-10  8.7066058734595268e-05  6.6162867484984217e-05  2.2672063853857707e-04  -1.1970327544703198e-09  -1.2006663994900004e-09  2.2646543742191135e-04  2.2646542984719307e-04  2.2646688912619016e-04  -1.3351755779285498e-09  -1.3476437763137935e-09  -1.2879209705752448e-09  -3.1099683392631768e-07  1.9909674390583139e-04  -3.2338732168546019e-09  -1.2393625087836877e-09  2.2646535573502501e-04  2.4592604741472963e-04  -7.0060087383431767e-09  -1.5876184511405268e-09  6.2816271366988643e-06  4.9984516971742910e-08  2.4499586214869659e-07  2.2647249389812579e-04  1.7410769594826132e-04  5.7781853046897855e-04  2.2646537903381090e-04  -1.4706293968111269e-09  -1.1482709779751872e-09  -2.2210510414944469e-10  1.9705614203803634e-04  5.5130159730760156e-05  2.3511290239668477e-04  2.2729011454724219e-04  2.2591161912773580e-06  3.2422647875016082e-05  1.6294287799062916e-04  -1.4357271305070077e-09  6.5862203963386833e-04  2.8850475500353151e-04  3.2961859294742738e-04  1.0174399623554032e-10  -2.0848185438171523e-09  2.3648415944162637e-07  3.0479780723611746e-04  2.3244497332818373e-04  2.6954574074203913e-08  2.4600371400488566e-04  3.7614525742080877e-04  1.0118593243969115e-04  2.3679188010475939e-04  -1.3655936032582156e-09  2.4217914556843895e-04  2.2722043546909086e-04  2.2649005156001684e-04  4.6300412251564653e-06  3.3086868959724601e-06  5.0843574197255133e-04  -1.6414493355536847e-09  6.7725047549729239e-07  3.7907639214263407e-04  -1.5490047670769876e-09  1.3424914844663594e-05  4.2500361761528847e-04  1.0650364249209523e-04  2.2676909308777835e-04  5.3037840394812991e-04  6.3409084688993505e-04  5.5905180574662467e-04  1.0279089249409599e-03  -4.1206744213197472e-10  2.2646572355853551e-04  2.2655428669908617e-04  1.1658021149471173e-06  2.3358125981364883e-07  2.6257200480989351e-04  2.2646530381440988e-04  2.6753939705942306e-04  5.9895330521461046e-05  1.2618823900163919e-05  1.7430197330251501e-07  3.8343356985536052e-04  -1.5981775542881134e-09  4.1676791283501240e-04  2.3929787646265608e-04  2.6308371534816173e-04  2.5466592944975897e-04  2.2646901505854965e-04  1.9942932070726514e-06  2.9532527032815454e-04  4.1003960717708341e-04  3.2295332445265556e-04  7.0712110276839631e-05  2.9594822972196940e-04  6.4759813339589751e-04  8.7822358694532573e-05  3.1453832130936925e-04  2.0835970659753431e-04  2.7858307007925150e-08  4.9438368903021378e-04  3.7493528155855529e-04  4.7676576957859495e-04  2.9441762652229606e-04  2.5359554247867858e-04  4.3742210999171549e-08  3.9417188836118633e-04  3.8684184863705067e-08  2.4334508815030069e-07  2.2979948991862199e-04  2.9727757307341211e-04  3.6880393334743315e-04  1.8307043704910204e-04  2.6170384953105001e-04  -1.5756321824755289e-09  3.3119433203027140e-05  5.1472731000261329e-04  7.3831650826171715e-04  2.2770471294384408e-04  1.9773086938604861e-06  4.0398701838511448e-07  4.3998787992939684e-04  2.9734063966750278e-06  3.3377622712833831e-04  2.5904304445186085e-04  6.8240879596190458e-04  -1.2055221839430620e-09  2.9118114787375880e-06  9.2211277616343090e-06  3.3331940263757055e-05  -1.2936014671998732e-09  2.2931429902476954e-04  2.3391044713074428e-04  5.2211195296331080e-05  6.9374996372717837e-04  4.9919047187480892e-04  2.2647637792063406e-04  3.9476689151776375e-04  4.2903733389487654e-04  2.4896085773060513e-04  3.7698482973801920e-04  2.9761066851856821e-04  2.7545437355115123e-04  2.3048384613701193e-04  2.1552024586711350e-04  3.6790260260147239e-04  3.2741209990065515e-04  -2.2609084674038872e-09  4.7894690495141828e-04  2.2772914294194306e-04  2.2710485476198328e-04  -1.4028202994917813e-09  -1.6182652077688900e-09  2.3115266515068758e-04  -1.7868739057074106e-09  4.1195504337593228e-04  -1.9959019804050904e-09  -1.1378550691415185e-09  2.2646643786180360e-04  2.0642107387629474e-04  -1.5215726361051542e-09  3.2806606368312790e-04  5.5691795950810381e-04  3.2267152930387857e-04  8.9818212905315789e-07  1.7938611284031235e-08  -1.2902272542478646e-09  4.5811469688873354e-04  2.2773376028247034e-04  3.3185573063985015e-04  1.0851938271257196e-04  1.3785634274542919e-08  2.2965305686336768e-04  2.9030724262373411e-05  7.8160823069379993e-04  4.7798676269443491e-04  2.3661966259451743e-04  4.4606094164036363e-04  6.6602131421683192e-08  2.3044413034795336e-04  -1.3711803347004462e-09  -1.3913786750874326e-09  2.4423432933696164e-04  2.3209040263302028e-04  4.8986698036277386e-04  6.1627131860803650e-09  7.0600875005733530e-04  -1.4580717711546341e-09  1.6792071407010415e-06  1.0133971132201237e-05  3.1786473319367724e-10  3.5617734821975347e-09  -1.3065290365521182e-09  4.4964152345964941e-04  4.0572733304342469e-04  4.6433727873352199e-04  3.1850058472228005e-09  2.2646576837565005e-04  3.9355726004126505e-04  3.3374205185680611e-04  2.2652822077223045e-04  3.9218538097892877e-04  3.2316901206495222e-04  2.1555934982665319e-05  -8.3068026472425656e-10  5.1746664788517624e-04  2.2676929983851178e-04  3.0198292131682579e-04  4.0606649195745077e-09  6.1837142707194854e-05  9.7916995894702861e-06  1.0860693601572251e-09  8.4468091362485087e-06  1.0472179576338538e-05  4.0785185425976404e-04  2.2646675876526992e-04  2.5650571356132241e-04  6.7197511064075636e-10  2.3087231231418769e-05  2.1256872658836196e-04  -2.5237351191141938e-09  -1.1258812844417136e-09  -1.1693296121344257e-09  2.3258899034153422e-04  -1.9909390574142120e-09  2.2657802919382247e-04  2.2647932355194400e-04  1.5166808718148438e-06  3.9515906676606692e-04  1.2264106403078540e-07  3.4380939453959646e-04  4.3357537906224095e-06  4.3121973321933572e-04  3.8870839753313530e-06  2.2646518946059036e-04  2.2676179888115052e-04  2.2646801391672965e-04  2.2647975393085381e-04  -1.9758903962695780e-09  3.5084429917798235e-08  1.8550079942998899e-04  1.6355672061121791e-09  2.2790921024359604e-04  2.4711043150137905e-04  9.8082683179313719e-06  3.4936671229678978e-06  1.3391815854042803e-04  2.2646537702592561e-04  1.0521981335661864e-04  -6.8143147309238921e-10  -1.9065231051420383e-09  -9.7972063144325224e-10  1.2384534141084454e-07  1.6771676803508105e-08  3.4629846588948286e-07  3.9619587632981718e-05  7.7020813463309141e-05  2.3860093232360111e-05  -1.1733699727246998e-09  2.6406802799646041e-04  -1.2920440355951597e-09  2.5882368874923867e-04  3.0789068915628294e-04  7.2339465405273603e-06  3.9284342100621056e-04  3.6421171855521096e-04  4.4043959210518162e-05  1.4358373700697454e-04  2.1440959013595826e-04  1.7611979444278006e-05  2.3714374767988822e-05  -1.2426693825666769e-09  2.2646558628583089e-04  3.0214045569087165e-04  6.6179679856062367e-07  1.4486442801375638e-04  2.3576879070033683e-04  -1.2866777956098362e-09  1.8155298779160794e-05  4.0759834015051627e-04  7.7833005872212586e-05  3.5316068198613644e-04  -1.1969847079823938e-09  1.6064089539275325e-04  2.2615869889342657e-04  -1.0340325846829142e-09  2.2646541548725034e-04  -1.7039101689326240e-09  2.8177096987848941e-08  3.6622734250810944e-04  2.1532781909111090e-04  3.4373934524628959e-04  4.0550466080039352e-04  1.0524324387406634e-04  3.8423934147190108e-04  2.4786883247926271e-04  4.6531129391759501e-04  1.4069102804416780e-06  4.7081321495798301e-09  2.6599151780493265e-04  3.9959404330970453e-04  9.2363849732728707e-09  5.8785562701378323e-07  5.5434126190051862e-05  3.3558271312410167e-04  2.8355062476442187e-04  3.5307370071927630e-04  3.6644987911614243e-04  2.4191634713872958e-04  9.5808301947568960e-05  3.6471057355446936e-07  6.6345137636526014e-06  5.0452938885691103e-07  4.7842077165290338e-07  2.2743112640326475e-04  2.0262669243280367e-06  -2.1086393009645688e-09  7.0066485406889137e-08  3.4881286819152081e-05  1.4922468055544645e-06  8.4588215972872717e-08  1.8085853306743959e-08  4.2771818117951345e-04  4.9262017574150743e-04  6.6109635457949255e-05  2.3011009948504567e-04  5.7986515851027377e-05  2.8879783349443101e-04  5.1840590090327254e-07  -2.0508550041036659e-09  1.3009553231587513e-04  -1.2422459234778963e-09  1.6284649541232829e-04  4.0229625997776323e-04  3.4687593731268099e-04  5.4420090267728572e-05  1.5169420361409473e-04  2.5074348471939771e-06  2.8312162284596312e-04  2.4984798311167587e-04  -2.5350531653762776e-09  -2.9445448902705417e-09  2.1786225178973434e-04  -1.8308086631762272e-09  2.5117481073457838e-04  -2.8265090261941105e-08  2.2646540323409119e-04  -1.1657940421487848e-09  1.6779008620141519e-04  3.1807716017031386e-04  2.7264371324517882e-06  5.5884173966898818e-05  3.4278475718508536e-04  7.6776056582974850e-08  3.9316589554590236e-04  -2.5121976162204797e-09  -1.3100327298489399e-09  -1.3919516145844118e-09  -4.9920728115880968e-10  8.3009768008730946e-07  8.4951816292917412e-04  2.2657319081500728e-04  2.3306898115474012e-04  2.3423540550323262e-04  2.8908553695299223e-04  3.3339437294831057e-04  -1.5927423083296766e-09  2.5835418215436155e-04  5.0881783336579733e-04  4.5293759361466512e-04  4.0638399179388118e-05  1.9262339351953748e-06  5.5730353692057950e-07  2.2646570427552239e-04  2.2653254253009248e-04  2.7696509315986464e-04  7.6298843895339802e-06  -1.9371764256367448e-09  3.5280322798070685e-04  2.2718881775730441e-04  3.8969012163169711e-04  2.2646526392013552e-04  2.2646513177478539e-04  2.5441925745323639e-04  2.2646499003705069e-04  2.2659211583599627e-04  1.0072688815860281e-05  -1.5481971010572315e-09  -1.6444176260154768e-09  1.4879125902610401e-07  7.4719322485224284e-07  3.1975096458975602e-06  2.2636861283491840e-04  2.2644748779388201e-04  2.2646223894681909e-04  2.3791522169171246e-04  2.2275196633703357e-04  -2.1506523890489395e-09  -1.4665457265477117e-09  2.2646530256624291e-04  2.2646511884433392e-04  -2.5519333318889240e-09  2.2646542765212421e-04  -1.1587902816068634e-09  -2.4302151913318466e-09  -1.7366476914943794e-09  -7.7381365320207303e-07  1.0296995673721616e-06  3.6876562568291017e-04  1.7137026146407704e-04  2.4197381917751714e-04  2.8951969325847912e-04  2.2646431770273535e-04  2.8376009376507826e-04  1.9945530075145371e-04  2.4804876849271491e-05  1.0562669467814497e-04  -1.1445034840388778e-09  3.8016617890783035e-08  2.8684492830864731e-04  4.1597531507148004e-04  2.2706115812875784e-04  2.2858359946930078e-07  2.5089313614377808e-04  1.2706074999824769e-04  5.6567647689821263e-04  2.6481750510205646e-04  5.5973698342830836e-05  -2.4053095932849409e-09  4.4230136390123069e-04  2.9394686091584464e-04  2.2649214832502900e-04  5.1738288481178465e-04  1.7278262502637999e-06  2.4507911846684353e-04  2.2652208289380735e-04  2.2646680683335594e-04  2.2650337612297613e-04  2.2675356202487553e-04  4.1447661977276923e-04  1.0553157094917102e-03  4.0157150175491955e-07  4.3310919548084992e-04  2.7857527688157705e-04  2.4910293923887363e-06  5.4364462867622352e-04  2.6265487851691576e-06  2.2663687822169809e-04  2.7323091678440237e-04  3.9906167313137294e-04  3.9526284610963110e-04  3.4875961163349968e-04  2.4818180471866067e-04  2.8451420167148852e-08  5.9607111009999097e-04  5.2548163306885684e-04  -1.4121080321602764e-09  1.0173655124436296e-07  6.6120203510119826e-04  2.9527049341563236e-08  1.3888122572839289e-09  4.1299404936764189e-04  1.1775443004727708e-05  5.0428497769755718e-05  4.8748175707971327e-05  4.1961579499436786e-05  2.8196201453386774e-05  2.3754045777075647e-04  2.4245594283979610e-04  4.0696278553437336e-04  2.8615212547537814e-05  1.5423038494820282e-05  2.2815906409550475e-05  1.0216567771449480e-05  2.2760586139249745e-04  2.2647200584230857e-04  3.1947055973933656e-04  2.2851369242714068e-04  8.1722704978815458e-06  2.2671416610727885e-04  2.2649765589624615e-04  3.0128137993735461e-04  2.2312455232316005e-05  2.0612882726701971e-08  2.3292918663480400e-09  2.2647027163042610e-04  3.1145796508052966e-04  2.2747334342270898e-04  2.3041668655773148e-04  2.2738003803783266e-04  1.4297658760423939e-04  -1.3213404020595890e-09  2.4987260955533334e-04  2.6366008461048060e-04  2.2663546892671936e-04  2.2648971054769600e-04  2.2648495136879697e-04  3.6197300669543199e-04  1.8842489822543982e-04  -1.6103467920918255e-09  1.8868986218972430e-05  1.3840521200473422e-09  6.3174180538863565e-06  3.8000974470273367e-04  3.4545490502662149e-04  2.3021556015512091e-04  1.0606667805283618e-04  -1.4302013520049223e-09  1.7625458083084244e-04  -1.7799943805439224e-09  3.9161075344925549e-04  7.2981123646751931e-04  -1.4815290694242485e-09  3.0999426380048635e-04  3.8416682628488618e-04  7.7509068599188781e-05  3.9129104227857376e-09  2.2646537465758566e-04  2.3633725727510523e-04  4.4068216654267832e-04  1.6864610770296783e-04  2.5751036328635696e-04  4.2763308956752111e-04  4.0004938635051406e-04  2.3653830833997151e-04  -1.2335506944515907e-09  1.4582191617610136e-07  4.7024625240948959e-04  2.6951660438692237e-04  2.6349522702792715e-04  2.2665016214851890e-04  2.2650435780023083e-04  -7.4746683257703699e-10  2.2646579041552757e-04  7.1458389640254130e-09  -1.2674126559103557e-09  3.6536910459007178e-04  2.2654838343336500e-04  -1.6885493747981375e-09  2.9890685917506642e-04  -1.3774826315218734e-09  4.2