<?xml version="1.0"?>
<VTKFile type="UnstructuredGrid"  version="0.1"  >
<UnstructuredGrid>
<Piece  NumberOfPoints="6486" NumberOfCells="12696">
<Points>
<DataArray  type="Float64"  NumberOfComponents="3"  format="ascii">0 5 0  0 0 0  5 0 0  5 5 0  2.5 0 0  5 2.5 0  2.5 5 0  0 2.5 0  2.5 2.5 0  0 1.25 0  1.25 0 0  1.25 5 0  0 3.75 0  5 1.25 0  3.75 0 0  5 3.75 0  3.75 5 0  3.541666666666667 1.458333333333333 0  1.458333333333333 3.541666666666667 0  1.875 1.25 0  3.75 3.125 0  1.284722222222222 2.326388888888889 0  2.683189655172414 3.767959770114943 0  0.9375 0.9375 0  4.0625 4.0625 0  0.7252209595959597 3.026357323232324 0  2.763480392156863 0.9129901960784315 0  1.875 4.345238095238095 0  4.345238095238095 1.875 0  4.192708333333333 0.8072916666666664 0  0.8072916666666665 4.192708333333334 0  3.368055555555555 2.326388888888889 0  0.6837606837606839 1.738782051282051 0  3.285485245626782 4.324328415208927 0  2.551239698778062 1.693130150610969 0  1.827256944444444 2.868923611111111 0  3.464875022477093 0.6813924607921316 0  1.942880513719175 2.059558626187995 0  3.04563492063492 2.971230158730159 0  4.375 3.4375 0  2.13639445139758 0.5994472256987903 0  4.272228422619047 2.606956845238095 0  0.625 0 0  0 0.625 0  5 4.375 0  4.375 5 0  0.6400043240752655 2.384646170113389 0  1.347691225855598 1.660875475110776 0  3.515783617857982 3.723905460714006 0  3.125 0 0  1.875 0 0  0.625 5 0  4.375 0 0  5 1.875 0  0 1.875 0  0 3.125 0  1.875 5 0  5 0.625 0  0 4.375 0  3.125 5 0  5 3.125 0  1.489644181965304 0.6007147273217681 0  2.054597701149425 3.742302955665024 0  2.662520990197781 4.39452575763237 0  2.415835363784578 3.165530021913244 0  0.8679986894865213 3.602373689486522 0  1.267459753787878 2.886186079545454 0  4.099702380952381 1.365327380952381 0  1.316964285714286 4.438244047619047 0  3.7915135293491 1.959691594758709 0  2.875141124191255 2.118761176511833 0  3.00418010501169 1.397414179299248 0  0.4081721322167092 3.410647930198662 0  0.4166666666666666 0.9375 0  1.014190407998288 0.4422301359994293 0  1.383260571305984 1.162718286082048 0  4.53125 3.90625 0  4.453125 4.453125 0  3.772848162504192 4.48678272083473 0  2.8125 0.404329517041716 0  0.4538690476190476 0.4538690476190476 0  2.305461739347387 1.04517007574828 0  3.771263799175824 2.624190260297553 0  3.229617768018734 1.809956994202883 0  3.780190884441317 1.025307111692601 0  4.646337365591398 0.9375 0  4.537623451379149 0.4609485750426037 0  1.200477888421151 3.934852888421152 0  0.3536626344086022 4.0625 0  0.4623765486208503 4.539051424957397 0  4.0625 0.353662634408602 0  4.560525106689535 1.390989100915847 0  3.958439078571988 3.619844539285994 0  4.672619047619047 2.1875 0  2.1875 4.672619047619047 0  1.862808494877602 3.325947624431087 0  0.3268135998175443 2.8125 0  4.674181280189791 2.8125 0  2.283233994935276 4.138623547175983 0  0.9375 4.677879119362977 0  3.08488061581743 3.469889594488945 0  3.113427375573758 3.913955730709506 0  1.652847799068813 3.950848935641292 0  2.932652662909449 2.550542739521724 0  3.311350648514189 1.088831994878698 0  0.6770833333333333 1.295851139601139 0  0 1.5625 0  1.047214787840024 1.96818092308125 0  4.183331482095785 3.03958703580843 0  3.4375 5 0  1.071307777252521 3.246275861010018 0  0 2.1875 0  0.386576856303419 2.03125 0  1.713862716483534 2.439783116849799 0  1.775396256975935 1.665976816304977 0  2.231236976948428 1.443917394671254 0  2.373900732409897 2.086930260150635 0  4.114918237574474 2.221646174618671 0  3.661302567757379 4.099620139144836 0  3.378215938602977 2.734494874063393 0  0.9842097536079312 2.597286741306247 0  1.642795138888889 4.672619047619047 0  4.0625 5 0  2.099458800960004 2.567446522665629 0  2.616202751603346 1.297895893940078 0  5 4.6875 0  0.9937554350075428 1.512592975947215 0  2.8125 5 0  3.002695327068194 4.614055254615477 0  3.205627424097207 0.3852436382721472 0  1.678616581261621 0.927556612265266 0  3.365326698305438 3.196943731162083 0  1.554834936170314 3.120009882655813 0  3.108408340729323 0.7797187795784133 0  3.684368918102174 0.3728877601163941 0  2.716214835303553 3.39276351922003 0  2.37718583984784 3.551973401560441 0  0.3750662445374837 1.52191994866787 0  2.679073487930202 2.844160731602957 0  1.557635869750078 1.991068682985722 0  1.812595698561088 0.3839273018252746 0  2.512014721281916 0.6320641118792227 0  2.1875 0 0  2.349973454443689 0.3189980586887866 0  4.6875 3.59375 0  4.636052949022233 3.178355898044465 0  4.6875 5 0  3.345485909784306 4.665765449101383 0  0.536727472389443 3.749603193819277 0  4.349541499640203 1.116201826262156 0  2.886559045931982 1.774013674579691 0  0.6770833333333334 0.7142857142857143 0  1.5625 0 0  4.120842096538671 4.628726497527622 0  2.176157474177018 1.793470423744689 0  2.175650736889416 2.909863021769539 0  4.036616464259081 1.709699085170981 0  3.887974623473683 0.6492597046022868 0  3.4375 0 0  3.70675699592552 2.289666624772415 0  4.697265625 4.208984375 0  2.815177577303495 4.085937578239174 0  4.672619047619047 1.730733296184288 0  4.6875 0 0  5 0.3125 0  0.3125 5 0  0 4.6875 0  0.3276089296588581 2.484526834811734 0  0.712433309515852 2.065138854645612 0  0.6376435912223634 2.711473454001295 0  1.184991292170422 0.7222504400947201 0  1.31884329779317 0.3206944232264773 0  3.683609198994263 3.44428698533042 0  0.3125 0 0  0 0.3125 0  4.231797269642997 3.789141808928991 0  1.564375596050781 1.425998687184973 0  2.007640894175573 0.9032106925568466 0  0.955125897558294 2.276666098587227 0  1.43898735721003 2.611310720271951 0  1.954491523717513 4.040700257877075 0  1.752947649777421 3.652439445419346 0  2.509575750247638 4.678021307664052 0  4.687194709705067 2.499965519538002 0  1.5625 5 0  0.9375 5 0  5 2.8125 0  2.1875 5 0  5 1.5625 0  5 2.1875 0  4.0625 0 0  5 0.9375 0  2.8125 0 0  0.9375 0 0  0 0.9375 0  0 2.8125 0  0 3.4375 0  0 4.0625 0  5 3.4375 0  5 4.0625 0  4.010848109290813 3.306446973933037 0  0.3077461147713075 3.119700563473354 0  4.6796875 4.6796875 0  2.333079012424948 3.845757959077508 0  0.7829771267899832 3.317744656243421 0  1.159100632608513 3.532487125138763 0  0.799066251840424 3.893573750162776 0  1.57326499580282 4.255438189102632 0  0.7309366047093668 0.2991402264438908 0  0.3054777494262156 1.223275888123843 0  4.027475154280377 2.78211326942427 0  2.35270874745988 4.426658168476266 0  3.474236283732569 2.021154281686229 0  4.401414236174444 2.329446628171927 0  3.39403781747337 3.987097102903034 0  1.077524329801934 1.214100792470484 0  4.065611571711903 1.066085524514197 0  2.165399002716117 3.335637450367864 0  3.007639563081306 1.093684039371638 0  4.030818285732145 4.351883315180857 0  3.504115222530889 1.739284194222036 0  1.224503368215566 4.712091441401919 0  3.805634204685714 1.321528442399996 0  4.319233123479386 1.573547993867769 0  1.024007670021325 4.394604704797005 0  3.776400432023095 3.839003324979723 0  2.991819819453308 4.320567175146181 0  0.9782797534072181 2.886406017887129 0  1.763835134082104 0.6602345487826022 0  3.765182288741625 1.631193038541544 0  2.267959593989681 2.345053543725764 0  4.412434895833333 4.168294270833333 0  4.4072265625 4.7255859375 0  2.791493971314009 3.11210833271929 0  3.408766223032414 3.469500900677365 0  1.915147569444444 4.725484476461039 0  2.070301968506271 0.2605666686358055 0  2.767932250651506 1.530295992695836 0  3.280065043173439 1.364863281105779 0  4.45101570110842 2.974157152713635 0  3.521928862999512 2.96990445010402 0  2.552921961347576 4.008414007169315 0  0.2682955376854191 3.657555015841003 0  3.084522868361304 2.310593316718068 0  2.669255823227708 1.939379494498064 0  2.615884629473921 2.238841231570381 0  1.405652091971449 0.8877813821442277 0  3.25151486618811 3.68536115104276 0  1.963741569810629 2.331207252264507 0  4.017297980292599 2.486269171379106 0  3.869168920841219 4.748188103831625 0  3.596868753579134 4.77342723825056 0  2.41262958240343 2.764128584995838 0  1.266750578673391 1.404747710001619 0  1.559243962241121 2.85146506328516 0  3.128799423834764 2.052081657715259 0  0.6770833333333333 0.9778025793650794 0  0.2083333333333333 0.78125 0  1.978224492765132 3.087074731032578 0  4.051448850909273 1.969392119104174 0  1.320577095006813 4.172234780971559 0  3.214261103850064 2.534397293281829 0  0.2635729089754111 1.779234736680035 0  3.510775680035133 4.460728640112889 0  2.603081405968802 0.2432579385496493 0  2.866341315154884 0.6662105505481998 0  3.000919221100777 0.2270278495648781 0  1.298858304121393 2.05917319923859 0  2.020292299736597 1.589794568392338 0  0.7401688396476035 4.470780315741533 0  0.6721783535561408 4.733125588707921 0  3.753712482075402 2.874301339727514 0  3.557348205914658 2.491958694539413 0  1.094565978195436 0.2011034254079851 0  0.9338148378011396 0.6833568465908735 0  2.945530578578538 3.701798332963805 0  3.111707186654356 3.216904195825605 0  1.341791111822685 3.293123262233967 0  1.632939924064587 1.184895891095613 0  0.6335477978936732 3.517393619499591 0  0.5576014611130192 3.210998966942492 0  1.564344196470102 0.3630498725895039 0  2.75362450242839 4.626680495816594 0  3.571304405229554 1.192452351107437 0  3.522934592621944 0.9359134489437148 0  4.453125 3.671875 0  4.765625 3.828125 0  1.055906321410838 4.14310472322957 0  4.795146539102229 0.46875 0  4.767156345199235 0.7178596932040019 0  0.2048534608977711 4.53125 0  0.232843654800765 4.282140306795998 0  0.5393715189906129 4.270810883024032 0  4.329922600274667 0.2750645887059072 0  4.275515096738972 0.5448389557295173 0  4.477747423652795 0.7252838358993123 0  0.2002829820452772 0.46875 0  0.4352678571428572 0.6956845238095237 0  0.5007241582667088 0.2123388122114133 0  4.672890923830735 0.2500902110494848 0  0.4308009280819452 4.783624996516437 0  2.104871305393774 4.438653689007242 0  0.2274454167838428 0.2274454167838428 0  3.446466574593436 0.4359605369011901 0  2.12354112127588 1.217588426759619 0  2.309175236825235 0.7888355970690434 0  2.556178570281936 1.054299163237582 0  0.578683248637
[...]
<PointData  Scalars="f_16-3"> 
<DataArray  type="Float64"  Name="f_16-3"  format="ascii">1.0081761852573605e-38  -3.5076641867312404e+01  -6.0707858365846647e-37  -1.3020063103301248e-59  2.5464100967311007e-15  7.0500752387229592e-43  -6.2457225615432323e-44  4.6622225052267871e-15  2.2253003072803804e-23  2.2046964397234551e-05  5.7541091853462243e-08  -1.6107244483095366e-43  3.2008333024717738e-27  7.3723603767043260e-42  3.0958539613609183e-26  5.1462774663258652e-51  -5.0660628960734299e-51  -8.7412187541268652e-29  -7.0782698156579229e-27  4.7826652396081453e-13  5.7573515768802891e-36  -4.6164855932269209e-16  6.8781181501239720e-34  2.0619530617048773e-06  -6.8340863329805071e-47  9.2594412039024995e-21  1.9356948109561979e-21  3.1304636561868807e-35  5.5774682459450893e-39  -4.4370101806674893e-33  -6.3462478916258429e-34  2.5879591222687611e-27  -2.7561273943719674e-09  1.6907201775026046e-42  -6.6146232866039854e-19  6.4108554840527821e-22  2.2544041535210980e-27  -5.6411908764520427e-18  -9.9271670887717511e-31  1.3468183731938554e-42  2.0631192571101532e-15  1.0741676225366014e-36  3.7386040001904826e-03  7.8493713469262785e+00  -3.2994038964140918e-55  -5.1846280015472821e-54  -4.0399186613682847e-14  -3.2502890341020888e-12  3.4790715558765100e-38  -5.5158720423216248e-20  -6.0095459947089219e-13  -9.5371597317529555e-42  2.8650785546515878e-31  2.7752399648488570e-44  4.9721447751831321e-11  1.9755143804536384e-21  -1.0740515713379037e-41  -1.1840008514142164e-39  -1.5668101032742870e-32  -3.5850225664073199e-48  1.2755179923900012e-46  1.4526423977790856e-10  -2.0183992560065209e-30  -5.5374357299839190e-39  8.4924336712857295e-27  -7.3085623583820299e-28  -4.8872174074661642e-21  3.3554696116267391e-34  -4.3031888571607802e-36  8.7586282355229359e-33  1.3642685262466211e-23  2.5004631685834671e-24  -8.1305170567621883e-26  3.2058114148594136e-02  -4.7164918781170482e-07  4.8090904428490634e-08  7.6407368905132881e-50  4.2172397578241728e-52  3.1271674568116340e-46  -1.1280750407053026e-20  4.3985088362849520e-02  5.6643929866170364e-18  -3.2769501480515089e-33  -5.0612806380538119e-25  2.6052862475848625e-31  -4.5150874661303012e-36  -2.8609548637886310e-35  -1.3573258378676548e-32  1.4702062371944258e-32  -1.5387138184845279e-36  7.7727066549915857e-31  -2.1797031467297868e-39  5.9145013961634326e-41  8.8827986172078508e-40  1.7582927901168951e-41  8.5892922340195536e-26  -5.9023733218551461e-19  1.1743821907948969e-41  -2.1303016315784935e-35  -1.6935879874516261e-39  4.0059119896198310e-33  -1.9890636248992982e-37  3.6626060969837680e-30  -3.1682547362970445e-26  2.5542588841267137e-26  -1.0430975545469335e-05  1.0192183761036951e-08  7.0153649944706064e-12  1.3233855853865998e-39  -4.0740712623708027e-50  -1.1937213356841410e-24  -1.9837298944977111e-14  3.5932969452398726e-11  7.3730215364319542e-18  -2.1796884690330228e-13  -1.5475121227592613e-17  7.2572025243663305e-20  -2.7841595120884971e-34  -2.2798031408630996e-41  1.3975742695169019e-29  -3.7619079005961303e-18  6.6740998839358220e-38  3.4797408646579669e-51  6.6390472310300128e-20  1.6410181686294297e-21  2.0352130657994047e-58  -2.4911925597534810e-10  1.5948048351761871e-45  -1.2535284479709633e-42  -7.4974842632008335e-23  -4.0252455236384776e-12  1.0198842760486151e-33  7.8562276970334071e-23  -2.0318661057851459e-25  8.1233014248066709e-27  -5.8165588815036618e-30  2.4658453203633193e-30  -3.9478233388011080e-06  -1.4931005553813083e-26  -7.3740191744401658e-14  3.8741129688697115e-13  1.8421415594281886e-18  1.6847926551934301e-14  -1.0533965463521032e-15  2.3669918156759209e-47  3.1732140084099970e-43  3.9177363511625704e-58  -4.2908619653360309e-46  -8.2178044193460765e-30  -2.1715115100628991e-37  2.1278886643054880e-21  -4.5681196591793933e-04  1.3991383047268110e-10  -7.7807706730911290e-50  -1.1784439842034637e-16  -5.4916319869588284e-23  -3.5440511689447739e-34  1.1932093158837201e-28  -4.4462861197518025e-23  1.7470614043520238e-29  5.0421861401185377e-52  -6.6942174529409247e-37  -2.6979471758776381e-41  1.9414847756153335e-33  5.0752722636917471e-38  -4.3288074009010420e-39  7.3479099059490985e-36  -9.5878024723140265e-16  -1.4475229469832993e-12  4.8263061004109114e-17  -2.9816669255838776e-08  1.2347245292430896e-09  -2.5050853822143832e-37  -2.1542832733124988e+00  -6.0413877533803372e+02  -1.4647499665523961e-44  -1.4773569384252707e-10  3.4184338653876916e-14  3.2563016161060986e-16  -7.8005941490371585e-19  5.6578775728447948e-34  -2.2720574575971990e-28  3.1291198927537403e-43  -9.8910853286340951e-41  -2.0158250216597656e-41  7.4543230518473948e-43  -1.6375088863285407e-44  1.2266552511762130e-43  1.3607854457774646e-44  -1.7283267008237906e-43  3.8412998711669311e-28  -1.0850368405274252e-39  -2.0113799654509034e-17  6.8904800997507813e-05  -2.7585119427984854e-02  1.7101325894726944e-18  4.1513237164471435e-23  1.9612788740427117e-29  7.7794483373033462e-49  -4.2145110667001798e-53  1.5753899563350347e-39  -1.2523781483906913e-22  -9.6981218235893186e-55  1.0961421431532188e-31  -4.5623085765741783e-24  -3.7101584701188789e-27  -1.8852620238185639e-31  2.2690179325249862e-34  1.3278448528142989e-03  -3.5547141056418448e-04  3.5991100679563446e-36  -4.6354142988738515e-39  8.1033966987269243e-28  7.3291553177269876e-36  -3.0761788653119356e-39  -9.5244547178396469e-08  -2.3546578478153792e-35  6.9705935334098434e-27  -9.1695767717716500e-24  -1.0494169865576424e-47  -5.8101178051425023e-28  1.3766211279204690e-40  -4.0997991578388050e-32  1.6987856439515561e-37  1.0600465092376324e-35  -2.7562138816878002e-41  7.0962348903966116e-41  -1.6619192298437895e-20  -3.9441469252923802e-12  3.6561463688749193e-31  -8.6725369580725793e-20  -7.2270243565890615e-49  9.8777705840599527e-53  -3.4080680349595795e-29  6.5599480867244809e-36  -3.5059061748346588e-39  1.5483720465646483e-13  4.1682916945488495e-21  -8.2368014966601462e-26  -2.7907428874899656e-41  -2.4526662385051031e-33  -5.1552236340382587e-34  -2.1581374509205638e-29  3.0775268699534308e-25  5.2929260582629104e-20  1.0890072116617454e-21  4.7477557777040220e-09  -5.9849631520265097e-35  3.9515197269193229e-17  -6.5484226323443932e-33  -5.9885404436890574e-49  -5.1227896549384877e-48  1.4838158199749033e-23  -2.3229620576445759e-08  -1.0086615128789938e-21  2.0663083951750213e-24  -2.3080021643569312e-04  3.5442728944546004e-02  1.9833847207138863e-23  -3.9040418357555501e-35  1.5245999786170726e-34  1.4728129622865454e-27  3.2232317391574232e-09  -1.4974615658160020e-45  1.4673720126248484e-17  -5.4403290860110801e-22  -9.3947083996817391e-22  -2.3840186075225196e-14  -8.1282605995607389e-14  1.9130688974470187e-36  -4.3284183173963965e-40  -1.3726588228693330e-33  1.4314011398056960e-30  1.9030559423711934e-06  4.0187915781161776e-09  5.1904171145951320e-34  2.4522711115099127e-31  -1.4369177979540358e-24  2.7038916108978984e-10  5.8941963968647596e-27  1.6238641419894575e-23  -1.2659757144636507e-10  -5.8323415806209233e-41  9.6142238301539972e-29  2.1271579615355821e-28  4.8734977520175369e-46  -2.9751152309252253e-50  -4.3092881742180458e-36  7.5404906409173390e-37  1.6423398751223273e-37  1.3343762072766909e-34  -5.5937575268113732e-33  7.3033994821661514e-34  -1.9406606362388743e-31  -4.0572314188814303e-32  -1.8312549542695571e-33  -8.5840863450981004e+01  4.2499531684780240e-02  9.1646241149775909e-01  -8.3617200407588794e-36  2.8429381659440758e-39  1.3138105039963442e-38  -1.8653876798642821e+02  6.3620802514940463e-26  -2.2694993622238916e-16  -1.8110844812305754e-16  1.1659728675786360e-19  1.4351950251379394e-32  -7.3218482352159666e-31  2.5639623933786592e-16  -1.6192934315880032e-29  1.7428735378943438e-27  1.7939820818598979e-39  7.7865443872870702e-44  -3.7105611851067876e-54  1.5284683520036588e-08  -9.3045431305591572e-30  7.7552209907842970e-30  7.0902898810008372e-24  1.1323177741391563e-41  1.3352445439511585e-28  1.2277394954809538e-29  -1.3243429989100665e-10  -3.0546994815275230e-25  1.1802242998601262e-28  7.7265133543693621e-37  -6.9091069743467035e-12  2.8999283850474311e-39  -3.0322578189826691e-36  7.2057565849960783e-14  1.1692987940015973e-41  -1.0182672185430121e-07  -8.4756765232724751e-20  -7.1751488286253528e-42  1.8459306684485362e-43  -3.2226843963082739e-31  -1.3102594494171130e-42  1.7899567507771732e-19  1.3342875998002973e-17  -3.0298941218519260e-44  4.5643599243393913e-39  -1.9548421840040541e-15  -4.4597407311294651e-23  -1.7780538412312634e-26  6.3170406892284387e-44  -5.6282426456958621e-25  -1.3312604355439947e-45  -1.2455475493730021e-40  1.1187653285841613e-23  -2.2083272608782704e-40  2.6708435329849349e-19  5.5655272221557897e-08  3.2190885375144254e-05  1.1626659152307395e-03  7.2223738838155506e-27  -1.2160424292371634e-23  -3.1689420041935327e-15  -1.5599292369305051e-42  2.2717175728643156e-42  4.7447260419121303e-43  -1.7937352346191676e-37  1.6079333171704738e-57  -2.4635465833111607e-37  3.9056839031596095e-38  -1.8308921440765760e-21  -2.1076851391321496e-52  2.1355499714411957e-23  -4.3718322035993644e-41  -1.0282648776992070e-32  -2.0054623676150709e-30  -6.1937912981646480e-26  -5.2567345093081751e-20  -6.6124023587864808e-05  9.7510669672589007e-49  2.3647631772234039e-31  -2.1444137468100539e-18  1.5402666129513600e-17  -9.3069378358429376e-44  -3.8003911116397919e-12  -3.2004580626094209e-12  3.5829264171845792e-11  4.8623395989400393e-15  -2.7554769695959027e-32  6.1612723079523408e-21  7.9413634932619810e-29  5.5109210319994795e-25  -5.8318405477628377e-33  -1.8727692803201696e-35  1.4582664956740009e-41  3.5062999824277824e-24  -1.7898332881436209e-18  -2.7102833373748931e-08  2.2726846584346340e-36  -3.0814060095294615e-10  -2.7060994274155283e-14  -1.7056491248029181e-46  -4.3799104391156570e-28  -2.9615574816404840e-25  3.2211968044887581e-45  1.7453895410335290e-20  3.1940427942192182e-04  -6.1170490016631592e-13  -5.8948670059084219e-33  7.3578148907494293e-37  -2.2800649232891161e-26  9.8181695853055849e-35  -4.8634744820993972e-45  1.3537622567487225e-22  -1.3104025179176362e-10  4.6710861702167032e-35  -4.5342928516307476e-18  -9.7120170753970564e-19  3.9155303027943928e-17  -3.1816980790931644e-35  -9.0397146560011053e-26  8.5394147663071039e-22  -9.8341693265023975e-32  5.2933316618867869e-07  3.0923591493172291e-14  -3.4381468278532911e-43  2.3168723390311559e-21  -2.5716038477484910e-35  -7.1689357950409905e-40  2.2284087671647944e-43  -7.1948481700691089e-20  -4.8433957645374376e-17  -3.5259945507671097e-29  3.7305369658477912e-35  -3.5963778137523338e-40  -9.5483069724183538e-45  -1.4579847149038208e-09  1.3986637566187536e-24  7.1222846699081001e-40  1.7454105730766007e-37  5.5914411882016782e-30  -4.5497476872047621e-18  1.9926076373080664e-31  1.2106616628101601e-19  6.0601616793800741e-39  -9.1657915237413222e-10  1.0502105264005932e-39  6.6605843597625418e-26  -5.4575864099300056e-18  -2.0917673135867874e-28  -1.5235890490081805e-56  4.0678428148923428e-13  1.0102172718419050e-33  1.6798597537675296e-22  1.9420872609991553e-13  -8.5502750506894636e-33  -1.0018065523923270e-27  8.8797851479835492e-13  3.6389122852956930e-41  -5.6931701271012749e-51  -1.4377942090186912e-39  5.9477977141222495e-43  4.0203196938550058e-14  -1.1630697205110305e-07  -1.4771723290402533e-22  1.5314316710341004e-10  -8.9072079058352207e-33  1.3039344744785539e-23  -1.0795247122366784e-15  -1.5114450029011287e-29  2.5114512253754336e-29  1.2871718024274759e-18  -1.2663850606034652e-37  8.0244378984776258e-11  2.0129985292691905e-26  4.3289987082633260e-05  1.6174581276622191e-28  -1.4166478907404577e-09  2.2344606056690041e-12  9.5172160295347558e-17  -5.2866767517793887e-21  -2.2834167822490666e-20  9.9422163251072368e-32  3.1049995595645455e-34  8.0335445028422090e-29  -1.3586260120221737e-05  2.1949996207703322e-41  -8.8209489915414047e-48  1.2784469721682879e-50  8.6129452878861955e-39  4.6221913449060661e-17  -1.6803684103388427e-48  2.5742433245516150e-09  1.5791192834547259e-14  6.4155438118984028e-19  5.0168002409683355e-35  1.8819047209234019e-22  -9.4573213716608759e-23  1.6748909784233963e-41  6.5701732431467382e-26  1.9705352887740721e-44  9.5803845150964993e-42  9.1890173667141608e-32  -4.9665401608659270e-43  4.9230407611605209e-30  2.5654181558732126e-48  -2.3964277787715578e-33  2.3351849032452093e-25  5.6733747937229196e-21  -1.3089744860924989e-04  1.2404440413295683e-39  2.2424806758012841e-38  1.7428191611633399e-41  -1.0726877068693077e-12  -1.0950308362557538e-28  3.4333170456123917e-27  9.6270011132416034e-29  1.3577694607628035e-50  -4.4804818333514360e-13  -5.0603393041961759e-37  1.3355918743769892e-13  1.5674422058507329e-13  3.2977588483026557e-32  6.8746276840163099e-25  -3.4591470667482216e-32  1.3496890216943762e-41  5.3551550850550138e-41  2.4465843787372308e-14  -1.3360702775922780e-11  1.2415101883042162e-23  -3.6193474847433054e-40  1.8946812143218623e-35  -1.3728486224754966e-28  2.4056293567525186e-28  3.2738213856321240e-31  -2.2473552458516073e-38  2.8984535210006825e-30  -4.4143577282285103e-44  -1.0685285283021646e-36  1.5946809981900946e-17  7.3724019454009827e-43  -1.4577192317456059e-36  2.2500407407095684e-34  4.3389607556725913e-33  -3.2489962149755533e-50  -8.5071326569144819e-48  9.8398779767773644e-47  6.1426412946955274e-37  6.9846349245861667e-37  -5.1238609243923424e-35  3.5251956700882414e-13  -8.1582825479232429e-16  3.3067648540501183e-26  -2.9367855715725425e-44  -2.5224215894182406e-48  -6.2133513161524297e-29  7.1273156217605361e-54  -3.3173190087975853e-53  -2.6786736141324897e-20  2.2084873469590643e-22  -1.5160456539773174e-35  -4.5541231459712846e-34  8.3661234372633300e-28  1.2219375058730837e-11  2.5584721545119528e-39  1.8489971762816004e-39  -1.0785116293948390e-34  4.6476746455052674e-03  7.9566719245684908e-04  -4.5583514680949661e-05  6.4448731278261576e-31  -9.7924325448890677e-36  3.8747655573505877e-34  1.3791433397897946e-09  -2.3900964805677679e-42  -7.2417044839436598e-37  1.5043078511266398e-21  -4.6115176994196086e-26  -3.4053248658312921e-38  1.9601000146339332e-57  -2.5826852074136563e-29  2.8742492852052494e-47  2.6507250985589086e-53  2.9885198572504384e-08  -1.5405005658306368e-21  1.6393156363269263e-29  -4.8925351245007593e-39  1.1893251019624499e-43  -2.2546142157852112e-27  1.9905996582910681e-37  -1.1438465639711745e-07  -4.8608014957840833e-25  -4.0948340874258012e-52  3.5843563459125466e-23  -1.6325643141157672e-11  1.5749502917122871e-19  1.3834355887906330e-36  -1.3757884945203860e-16  -1.3798835047399641e-20  -2.8775140558893997e-16  -3.0311109701349321e-40  -1.3779848414917226e-30  4.8558880915298584e-03  -4.5098569308474034e-18  -9.4623237935236800e-09  -8.7162363703062006e-08  -1.1644742543433564e-09  -3.3781197947065530e-07  -1.1028679911286108e-06  -2.4441065271164873e-41  1.8484406529742155e-43  -3.9917116987549727e-25  1.2941986014899485e-22  3.1711578793153283e-21  -1.4684810745547538e-18  -5.1081061227278080e-01  -4.9439969589005214e-37  -3.7701623861248891e-39  -1.0175237694241993e-13  -2.6039332608341384e-48  -5.2355842330322401e-37  1.0712057858370426e-49  1.5413038075324564e-35  4.7707486504337787e-49  -1.1667348613485473e-15  -1.2987869850472036e-42  6.9661062913615064e-23  -4.8425588866447409e-40  3.2325435395389574e-40  -2.6910093271441966e+01  -2.5089132193978010e+04  -8.1171754454578178e-45  -3.0397573144845619e-16  3.4592047578271654e-54  1.1724666557747117e+00  6.4363218551615413e-32  1.2535400945293911e-37  1.0936198567172212e-09  1.5599448625019485e-10  2.9954507918260826e-27  7.3980801485827547e-39  1.1880468487512334e-24  -7.8780995782443459e-15  6.3826419073083354e-52  2.5130572609524303e-02  -4.5016323571674729e-32  2.3612917080972925e-31  2.4022476526528859e-14  -3.3618915457869652e-37  8.5911233687113698e-05  -2.5934177328670395e-25  -6.1376462842420266e-36  -1.0546799199625899e-32  5.0612679305910623e-30  2.5996342452823259e-45  -1.0920797610509136e-23  2.9003320581489580e-31  1.9856637900157869e-18  1.0284115357074661e-32  -7.3921853542449825e-36  -1.5784796875621257e-40  4.9426850544645510e-42  -1.0732648928237627e-32  4.4153264644323840e-16  -1.1090433243822880e-43  2.1221048695151513e-45  6.6888780399656912e-15  -3.9932891832699783e-56  -5.9350743677625672e-41  7.6551367410036328e-53  -3.2885384306701691e-37  -9.1428645732533733e-40  1.3442410848183675e-43  -5.4537406535898608e-24  -2.4489817481608190e-42  1.2605858550845677e-47  -2.1095105542446880e-23  2.1141052841987591e-21  1.4660330500932557e-43  -1.0076487746054346e-42  3.5820771475295919e-46  3.8792267198506839e-13  4.5655047351515494e-13  -5.1080716620907683e-17  -2.4279859005862091e-45  2.4622929790833303e-07  5.8291190604022336e-12  -9.3886547882329923e-27  -1.1353366033895711e-27  -4.8428111660999657e-41  8.5307622038169995e-02  1.2994148902597903e-34  -1.3477655806167240e-38  2.2901113228119116e-08  1.4472247034433661e-19  -2.0193979390808514e+02  -4.5640471771778374e-01  -1.1680481738419566e-50  -1.9229422575860147e-58  6.4654488173274121e-60  -2.4835542126374803e-59  7.3191276941053831e-20  2.7325926935396637e-45  -6.0487729652847460e-04  -4.9851448288073592e-50  -8.0788614216982533e-55  -1.1350107824055240e-39  -1.0049435347420176e-30  -2.4064659123498061e-38  -2.6826375686483701e-25  -9.0926612583498216e-41  -1.5726897305527734e-24  5.6515512293347672e-42  -1.2670487445097396e-07  -4.3173353985832531e-07  2.7792579128200952e-06  6.5216423789149696e-45  1.1322330366118655e-04  -1.6191770813479988e-13  -3.0173678956409789e-06  -3.3333430456395774e-33  -1.8032863237095449e-18  -4.6459608592249228e-16  2.5019457379827255e-34  3.1993139448514957e-21  1.3332234568127628e-21  -1.5961069593208276e-24  3.5385625468324721e-18  -1.6673439197239976e-05  -2.4892145380114544e-03  1.2549934545503293e-38  -8.3475744098854118e-35  1.2553770046235945e-31  3.0617376506518218e-36  1.8504954235997956e-09  2.1336246247789687e-43  -8.4993602201461174e-22  5.3823604549592116e-34  -3.5385473152458504e-19  3.5253004057403533e-11  -4.3298798382122356e-27  3.9491291085877393e-31  -2.4002841836020215e-23  -6.7395686778149383e-15  9.8568332113261263e-16  -3.0178803826301073e-30  3.3997766153891018e-40  -1.7669420223338177e-10  -4.0316621314400628e-37  -7.2634262245375530e-38  8.2212446383166784e-23  1.1527442896167813e-26  -5.1822883620625509e-11  1.4684904261720172e-30  6.1720129456834074e-09  -7.0370617026898019e-44  1.1170096203291326e-24  4.8409261723474133e-26  2.4395034494897633e-41  -1.3260143105203909e-34  -7.5695467467950379e-34  2.4832335237338829e-38  4.8951549969936499e-36  4.0147844400996127e-34  -1.6907360112282568e-18  -1.5792018398785075e-34  -2.6204789586065416e-27  2.3287165963701527e-19  -1.0345785519541550e-29  -2.6734762588974896e-30  4.6368062482522017e-43  -2.5287225627381853e-23  3.9154741572263954e-29  3.3013355808973453e-32  -1.8390183792817770e-33  -2.3265826794725095e-33  -1.0566128868277039e-22  4.3369018515863826e-26  -1.0795339211088675e-26  6.3397641883112992e-19  3.3562600557759723e-33  -2.9863565687008030e-39  -6.2692543517389855e-41  2.7958471055784316e-36  -4.0942260000476054e-34  2.6873505332537895e-37  7.7008835488978168e-45  1.7191355770953131e-29  4.0227374458075866e-22  -9.0588575629856491e-42  6.6829438132699930e-43  -6.2750850109855867e-38  -8.5704634338480503e-27  2.6737118489362376e-20  -8.4310937173355075e-15  1.3656919334851282e-28  -3.0459978218276056e-29  -2.0603506596774632e-12  8.4464706496473782e-20  5.9469923838756137e-47  -1.2996935482178541e-08  -9.3326806001138161e-28  3.6278262441554877e-46  -3.8742841064400788e-46  -5.0599207181363322e-52  4.3646814814125893e-36  -7.2078424136472009e-41  2.7775851289886477e-20  -5.5283115428043445e-30  1.7327517125992316e-25  2.1864991606779290e-18  -4.3203760628072714e-38  8.1554830810457958e-40  6.5306700990060707e-28  1.2362618737588804e-34  2.9782670102920468e-18  1.7003066780943185e-26  8.1753077944304394e-21  2.8590407397234506e-19  6.