<?xml version="1.0"?>
<VTKFile type="UnstructuredGrid"  version="0.1"  >
<UnstructuredGrid>
<Piece  NumberOfPoints="6486" NumberOfCells="12696">
<Points>
<DataArray  type="Float64"  NumberOfComponents="3"  format="ascii">0 5 0  0 0 0  5 0 0  5 5 0  2.5 0 0  5 2.5 0  2.5 5 0  0 2.5 0  2.5 2.5 0  0 1.25 0  1.25 0 0  1.25 5 0  0 3.75 0  5 1.25 0  3.75 0 0  5 3.75 0  3.75 5 0  3.541666666666667 1.458333333333333 0  1.458333333333333 3.541666666666667 0  1.875 1.25 0  3.75 3.125 0  1.284722222222222 2.326388888888889 0  2.683189655172414 3.767959770114943 0  0.9375 0.9375 0  4.0625 4.0625 0  0.7252209595959597 3.026357323232324 0  2.763480392156863 0.9129901960784315 0  1.875 4.345238095238095 0  4.345238095238095 1.875 0  4.192708333333333 0.8072916666666664 0  0.8072916666666665 4.192708333333334 0  3.368055555555555 2.326388888888889 0  0.6837606837606839 1.738782051282051 0  3.285485245626782 4.324328415208927 0  2.551239698778062 1.693130150610969 0  1.827256944444444 2.868923611111111 0  3.464875022477093 0.6813924607921316 0  1.942880513719175 2.059558626187995 0  3.04563492063492 2.971230158730159 0  4.375 3.4375 0  2.13639445139758 0.5994472256987903 0  4.272228422619047 2.606956845238095 0  0.625 0 0  0 0.625 0  5 4.375 0  4.375 5 0  0.6400043240752655 2.384646170113389 0  1.347691225855598 1.660875475110776 0  3.515783617857982 3.723905460714006 0  3.125 0 0  1.875 0 0  0.625 5 0  4.375 0 0  5 1.875 0  0 1.875 0  0 3.125 0  1.875 5 0  5 0.625 0  0 4.375 0  3.125 5 0  5 3.125 0  1.489644181965304 0.6007147273217681 0  2.054597701149425 3.742302955665024 0  2.662520990197781 4.39452575763237 0  2.415835363784578 3.165530021913244 0  0.8679986894865213 3.602373689486522 0  1.267459753787878 2.886186079545454 0  4.099702380952381 1.365327380952381 0  1.316964285714286 4.438244047619047 0  3.7915135293491 1.959691594758709 0  2.875141124191255 2.118761176511833 0  3.00418010501169 1.397414179299248 0  0.4081721322167092 3.410647930198662 0  0.4166666666666666 0.9375 0  1.014190407998288 0.4422301359994293 0  1.383260571305984 1.162718286082048 0  4.53125 3.90625 0  4.453125 4.453125 0  3.772848162504192 4.48678272083473 0  2.8125 0.404329517041716 0  0.4538690476190476 0.4538690476190476 0  2.305461739347387 1.04517007574828 0  3.771263799175824 2.624190260297553 0  3.229617768018734 1.809956994202883 0  3.780190884441317 1.025307111692601 0  4.646337365591398 0.9375 0  4.537623451379149 0.4609485750426037 0  1.200477888421151 3.934852888421152 0  0.3536626344086022 4.0625 0  0.4623765486208503 4.539051424957397 0  4.0625 0.353662634408602 0  4.560525106689535 1.390989100915847 0  3.958439078571988 3.619844539285994 0  4.672619047619047 2.1875 0  2.1875 4.672619047619047 0  1.862808494877602 3.325947624431087 0  0.3268135998175443 2.8125 0  4.674181280189791 2.8125 0  2.283233994935276 4.138623547175983 0  0.9375 4.677879119362977 0  3.08488061581743 3.469889594488945 0  3.113427375573758 3.913955730709506 0  1.652847799068813 3.950848935641292 0  2.932652662909449 2.550542739521724 0  3.311350648514189 1.088831994878698 0  0.6770833333333333 1.295851139601139 0  0 1.5625 0  1.047214787840024 1.96818092308125 0  4.183331482095785 3.03958703580843 0  3.4375 5 0  1.071307777252521 3.246275861010018 0  0 2.1875 0  0.386576856303419 2.03125 0  1.713862716483534 2.439783116849799 0  1.775396256975935 1.665976816304977 0  2.231236976948428 1.443917394671254 0  2.373900732409897 2.086930260150635 0  4.114918237574474 2.221646174618671 0  3.661302567757379 4.099620139144836 0  3.378215938602977 2.734494874063393 0  0.9842097536079312 2.597286741306247 0  1.642795138888889 4.672619047619047 0  4.0625 5 0  2.099458800960004 2.567446522665629 0  2.616202751603346 1.297895893940078 0  5 4.6875 0  0.9937554350075428 1.512592975947215 0  2.8125 5 0  3.002695327068194 4.614055254615477 0  3.205627424097207 0.3852436382721472 0  1.678616581261621 0.927556612265266 0  3.365326698305438 3.196943731162083 0  1.554834936170314 3.120009882655813 0  3.108408340729323 0.7797187795784133 0  3.684368918102174 0.3728877601163941 0  2.716214835303553 3.39276351922003 0  2.37718583984784 3.551973401560441 0  0.3750662445374837 1.52191994866787 0  2.679073487930202 2.844160731602957 0  1.557635869750078 1.991068682985722 0  1.812595698561088 0.3839273018252746 0  2.512014721281916 0.6320641118792227 0  2.1875 0 0  2.349973454443689 0.3189980586887866 0  4.6875 3.59375 0  4.636052949022233 3.178355898044465 0  4.6875 5 0  3.345485909784306 4.665765449101383 0  0.536727472389443 3.749603193819277 0  4.349541499640203 1.116201826262156 0  2.886559045931982 1.774013674579691 0  0.6770833333333334 0.7142857142857143 0  1.5625 0 0  4.120842096538671 4.628726497527622 0  2.176157474177018 1.793470423744689 0  2.175650736889416 2.909863021769539 0  4.036616464259081 1.709699085170981 0  3.887974623473683 0.6492597046022868 0  3.4375 0 0  3.70675699592552 2.289666624772415 0  4.697265625 4.208984375 0  2.815177577303495 4.085937578239174 0  4.672619047619047 1.730733296184288 0  4.6875 0 0  5 0.3125 0  0.3125 5 0  0 4.6875 0  0.3276089296588581 2.484526834811734 0  0.712433309515852 2.065138854645612 0  0.6376435912223634 2.711473454001295 0  1.184991292170422 0.7222504400947201 0  1.31884329779317 0.3206944232264773 0  3.683609198994263 3.44428698533042 0  0.3125 0 0  0 0.3125 0  4.231797269642997 3.789141808928991 0  1.564375596050781 1.425998687184973 0  2.007640894175573 0.9032106925568466 0  0.955125897558294 2.276666098587227 0  1.43898735721003 2.611310720271951 0  1.954491523717513 4.040700257877075 0  1.752947649777421 3.652439445419346 0  2.509575750247638 4.678021307664052 0  4.687194709705067 2.499965519538002 0  1.5625 5 0  0.9375 5 0  5 2.8125 0  2.1875 5 0  5 1.5625 0  5 2.1875 0  4.0625 0 0  5 0.9375 0  2.8125 0 0  0.9375 0 0  0 0.9375 0  0 2.8125 0  0 3.4375 0  0 4.0625 0  5 3.4375 0  5 4.0625 0  4.010848109290813 3.306446973933037 0  0.3077461147713075 3.119700563473354 0  4.6796875 4.6796875 0  2.333079012424948 3.845757959077508 0  0.7829771267899832 3.317744656243421 0  1.159100632608513 3.532487125138763 0  0.799066251840424 3.893573750162776 0  1.57326499580282 4.255438189102632 0  0.7309366047093668 0.2991402264438908 0  0.3054777494262156 1.223275888123843 0  4.027475154280377 2.78211326942427 0  2.35270874745988 4.426658168476266 0  3.474236283732569 2.021154281686229 0  4.401414236174444 2.329446628171927 0  3.39403781747337 3.987097102903034 0  1.077524329801934 1.214100792470484 0  4.065611571711903 1.066085524514197 0  2.165399002716117 3.335637450367864 0  3.007639563081306 1.093684039371638 0  4.030818285732145 4.351883315180857 0  3.504115222530889 1.739284194222036 0  1.224503368215566 4.712091441401919 0  3.805634204685714 1.321528442399996 0  4.319233123479386 1.573547993867769 0  1.024007670021325 4.394604704797005 0  3.776400432023095 3.839003324979723 0  2.991819819453308 4.320567175146181 0  0.9782797534072181 2.886406017887129 0  1.763835134082104 0.6602345487826022 0  3.765182288741625 1.631193038541544 0  2.267959593989681 2.345053543725764 0  4.412434895833333 4.168294270833333 0  4.4072265625 4.7255859375 0  2.791493971314009 3.11210833271929 0  3.408766223032414 3.469500900677365 0  1.915147569444444 4.725484476461039 0  2.070301968506271 0.2605666686358055 0  2.767932250651506 1.530295992695836 0  3.280065043173439 1.364863281105779 0  4.45101570110842 2.974157152713635 0  3.521928862999512 2.96990445010402 0  2.552921961347576 4.008414007169315 0  0.2682955376854191 3.657555015841003 0  3.084522868361304 2.310593316718068 0  2.669255823227708 1.939379494498064 0  2.615884629473921 2.238841231570381 0  1.405652091971449 0.8877813821442277 0  3.25151486618811 3.68536115104276 0  1.963741569810629 2.331207252264507 0  4.017297980292599 2.486269171379106 0  3.869168920841219 4.748188103831625 0  3.596868753579134 4.77342723825056 0  2.41262958240343 2.764128584995838 0  1.266750578673391 1.404747710001619 0  1.559243962241121 2.85146506328516 0  3.128799423834764 2.052081657715259 0  0.6770833333333333 0.9778025793650794 0  0.2083333333333333 0.78125 0  1.978224492765132 3.087074731032578 0  4.051448850909273 1.969392119104174 0  1.320577095006813 4.172234780971559 0  3.214261103850064 2.534397293281829 0  0.2635729089754111 1.779234736680035 0  3.510775680035133 4.460728640112889 0  2.603081405968802 0.2432579385496493 0  2.866341315154884 0.6662105505481998 0  3.000919221100777 0.2270278495648781 0  1.298858304121393 2.05917319923859 0  2.020292299736597 1.589794568392338 0  0.7401688396476035 4.470780315741533 0  0.6721783535561408 4.733125588707921 0  3.753712482075402 2.874301339727514 0  3.557348205914658 2.491958694539413 0  1.094565978195436 0.2011034254079851 0  0.9338148378011396 0.6833568465908735 0  2.945530578578538 3.701798332963805 0  3.111707186654356 3.216904195825605 0  1.341791111822685 3.293123262233967 0  1.632939924064587 1.184895891095613 0  0.6335477978936732 3.517393619499591 0  0.5576014611130192 3.210998966942492 0  1.564344196470102 0.3630498725895039 0  2.75362450242839 4.626680495816594 0  3.571304405229554 1.192452351107437 0  3.522934592621944 0.9359134489437148 0  4.453125 3.671875 0  4.765625 3.828125 0  1.055906321410838 4.14310472322957 0  4.795146539102229 0.46875 0  4.767156345199235 0.7178596932040019 0  0.2048534608977711 4.53125 0  0.232843654800765 4.282140306795998 0  0.5393715189906129 4.270810883024032 0  4.329922600274667 0.2750645887059072 0  4.275515096738972 0.5448389557295173 0  4.477747423652795 0.7252838358993123 0  0.2002829820452772 0.46875 0  0.4352678571428572 0.6956845238095237 0  0.5007241582667088 0.2123388122114133 0  4.672890923830735 0.2500902110494848 0  0.4308009280819452 4.783624996516437 0  2.104871305393774 4.438653689007242 0  0.2274454167838428 0.2274454167838428 0  3.446466574593436 0.4359605369011901 0  2.12354112127588 1.217588426759619 0  2.309175236825235 0.7888355970690434 0  2.556178570281936 1.054299163237582 0  0.578683248637
[...]
<PointData  Scalars="f_800-3"> 
<DataArray  type="Float64"  Name="f_800-3"  format="ascii">4.2659840691077139e-03  6.9173372936401807e-03  3.9643503181006554e-03  3.9476118753631988e-03  5.4468113504390504e-03  3.9614223479449836e-03  4.2196911563982323e-03  5.6954726532985811e-03  5.4331450141569086e-03  6.4365949899544035e-03  6.1925290773399899e-03  4.2027492507698992e-03  4.9462197201091303e-03  3.9615023604409102e-03  4.7028978541558521e-03  3.9658336244567599e-03  4.2105094670165264e-03  4.8238658565511643e-03  5.0749757183886218e-03  5.8206222064769806e-03  4.7040183106612683e-03  5.7948283200343620e-03  4.9381174390252811e-03  6.3433827287505623e-03  4.5017554795561774e-03  5.3812162437899512e-03  5.2872189539242848e-03  4.6057820016306957e-03  4.3481619429066396e-03  4.4348117428481609e-03  4.7070508504595118e-03  4.9336462362767949e-03  6.1446813500161705e-03  4.6077146029605892e-03  5.4180537858331953e-03  5.4721831680028740e-03  4.8682112011101016e-03  5.7681490582415671e-03  5.1104706913575942e-03  4.3351873929269643e-03  5.6629062423803550e-03  4.3921943409464849e-03  6.5648081698534509e-03  6.8133659028126554e-03  3.9664554739699742e-03  4.1781868755544505e-03  5.7641294434303703e-03  6.1259171158167180e-03  4.8158746705367645e-03  5.0684839050297208e-03  5.8163548068684056e-03  4.2482241358193602e-03  4.3305995477377762e-03  3.9575711634954854e-03  6.0651757696404745e-03  5.3206778860555026e-03  4.2155490036714718e-03  3.9628885408503432e-03  4.6250126871341096e-03  4.2157053698260285e-03  3.9620553264560730e-03  6.0494851521963010e-03  4.9581828963460419e-03  4.5687048169317634e-03  5.2930517771518429e-03  5.0372748159681477e-03  5.4681404721269901e-03  4.4910997869522752e-03  4.5451362280543974e-03  4.6786854932546829e-03  5.2255572613251564e-03  5.1464497528579461e-03  5.1511382353969775e-03  6.6132990910618451e-03  6.3330402263654315e-03  6.1007444567874550e-03  4.2419903752781984e-03  4.2681656093789535e-03  4.4955105823106427e-03  5.2592230580290888e-03  6.6112754432290557e-03  5.5653488685828839e-03  4.6948404760433007e-03  5.0148064131421890e-03  4.6815810630325737e-03  4.1680257593287168e-03  4.2343086640907806e-03  4.8396435565064089e-03  4.7600338282879229e-03  4.4774310683875721e-03  4.5149236923683819e-03  4.2151530698148008e-03  4.5729317605936988e-03  4.1528473443220235e-03  4.4107573367518031e-03  5.2031315910351181e-03  5.5089466192724777e-03  4.1519224135016406e-03  4.7221365024866183e-03  4.3952483174849316e-03  5.0421584665292056e-03  4.8471439860907238e-03  4.8327026131793427e-03  5.1850875357809436e-03  4.9603499589022789e-03  6.4044402250542183e-03  6.2510980588892468e-03  6.0079310223299055e-03  4.4506421163907498e-03  4.2136950126496426e-03  5.2495580450904467e-03  5.8795720313101658e-03  5.9799646628324998e-03  5.7241607063339382e-03  5.8610018837665177e-03  5.6083394685503083e-03  5.5155525986559243e-03  4.4836916316195264e-03  4.6766343009977457e-03  4.9259508783526564e-03  5.6358155432959574e-03  4.4005834449568756e-03  4.2049606744864049e-03  5.6199496466315122e-03  5.3813115981137969e-03  3.9577214366594187e-03  6.2710310564879149e-03  4.2184113413024863e-03  4.4417482987265640e-03  5.0221927775792076e-03  5.9373849906103355e-03  4.9236863009956841e-03  5.3275827541268096e-03  5.0824894403203877e-03  4.7358205019917910e-03  5.1511734926377485e-03  5.0669142225049429e-03  6.2736926967022462e-03  5.3243331874501540e-03  5.9686740988665341e-03  5.8557056479189131e-03  5.4365974793746360e-03  5.6298032294680765e-03  5.5318310847660744e-03  4.1489687640413530e-03  4.1766563166551248e-03  4.0906352382333146e-03  4.4042528741478461e-03  4.9457707243194659e-03  4.3407160438225225e-03  5.2217196660985120e-03  6.4858594233606860e-03  6.0052387546555164e-03  4.3745324217712789e-03  5.6375558560152177e-03  5.4447540825235509e-03  4.5289217905079612e-03  4.6147680664578661e-03  4.8852389939377109e-03  4.7302513456416945e-03  4.1381340717173854e-03  4.7526965511831181e-03  4.1496915480421009e-03  4.1451562831913763e-03  3.9642812568500482e-03  4.2721884480110732e-03  4.4385450341728125e-03  5.7028123727342209e-03  5.9516393611593506e-03  5.5677646974915665e-03  6.2316549849908360e-03  6.1513036649927634e-03  4.7344253809009015e-03  6.7515294472111059e-03  6.8471565046083526e-03  4.4128609615626084e-03  5.9863066804727730e-03  5.7416926908860823e-03  5.8252524356833370e-03  5.6274945312533202e-03  4.7821687169053934e-03  5.0101656374741139e-03  4.4046805724295510e-03  4.1437325853660488e-03  4.2209182603226425e-03  4.2136578727144996e-03  3.9627402200203121e-03  4.2148291868086898e-03  3.9584232227681624e-03  3.9588968589419522e-03  4.5165141373242875e-03  3.9646464494046971e-03  5.2561444763743479e-03  6.3781210251795091e-03  6.6216482141964531e-03  5.5068661057192008e-03  5.1333387902246482e-03  4.7456913925342107e-03  3.9639125332637118e-03  3.9666214251131982e-03  4.5498579912797432e-03  5.3240778553557003e-03  4.1334191526616959e-03  4.8959381844886013e-03  5.2079972703538641e-03  5.0812196708564499e-03  4.8663568458575668e-03  4.6543087859106397e-03  6.5015299197729616e-03  6.4515703950269359e-03  4.5414307531965554e-03  4.5577133069241178e-03  4.8686616510206036e-03  4.3124595749788382e-03  4.7812675655120596e-03  6.2839322846563600e-03  4.5102672761971720e-03  5.1954623346620451e-03  5.1425740382144971e-03  4.4838639225126525e-03  4.8481225920794617e-03  4.3908076001037653e-03  4.6676952847825174e-03  4.3606163883427125e-03  4.5821987336887885e-03  4.6703525425945214e-03  4.6100821860470291e-03  5.4649011421844564e-03  5.8868199602278510e-03  4.6907127514338558e-03  5.5721076831822987e-03  4.3008794599406243e-03  4.2566552209812340e-03  5.2372568510784803e-03  4.8923228764896276e-03  4.3728351320402982e-03  5.7008153096917459e-03  5.2898569945439592e-03  4.9807563011174142e-03  4.2867639240473532e-03  4.8381598097523753e-03  4.7972132688991510e-03  5.0022923266367595e-03  5.1014553502861165e-03  5.3479384118049547e-03  5.3750423697344115e-03  6.0998201738532215e-03  4.9277195839002880e-03  5.7348510835979992e-03  4.5447452118220653e-03  4.3500907890523278e-03  4.3410039202735886e-03  5.4621645304845957e-03  6.1733687675489023e-03  5.4845341016971300e-03  5.0762053280709735e-03  6.5619425524044350e-03  6.7052430671682723e-03  5.3430076759838907e-03  4.5217473753192709e-03  4.7004556232385112e-03  5.0235367027093303e-03  6.1215477364840168e-03  4.5242014971901808e-03  5.3841452759496458e-03  5.2251074197015796e-03  5.1443907680074324e-03  5.9523515260139180e-03  5.7318394369497549e-03  4.5175317367995554e-03  4.3631616999694114e-03  4.7035109508794378e-03  4.8221503176056196e-03  6.2849090469139319e-03  6.3753185232377965e-03  4.9719163594118239e-03  5.0681061944392999e-03  5.2235902333479479e-03  5.9638435478744506e-03  5.0895963510577905e-03  5.2709706937127199e-03  6.0056687552360261e-03  4.4326429539213496e-03  4.8064155051789695e-03  4.8365896090556675e-03  4.2877691383494771e-03  4.1035956147515004e-03  4.7189352805631348e-03  4.0798323322534819e-03  4.0994423068124184e-03  4.5229174915463926e-03  4.6266020337089519e-03  4.6369592888452571e-03  4.3578457777327176e-03  4.3883816085780545e-03  4.2684188988275458e-03  6.9692563740008200e-03  6.7355864435322847e-03  6.6394858031004426e-03  4.1540277007316075e-03  4.3722230667772102e-03  4.5483027484946427e-03  6.7571941180768133e-03  4.8770912388269696e-03  5.6724549565088335e-03  5.5615111860790982e-03  5.4157420742798942e-03  4.8193917687118677e-03  4.9746942082444425e-03  5.8368315816994861e-03  4.8665389819687399e-03  4.6329248060777064e-03  4.1091101812650429e-03  4.0934478276453074e-03  4.0952292616378491e-03  6.2246562501734708e-03  4.9276256281939020e-03  4.9260159044987708e-03  5.1068122779640871e-03  4.3421670057936660e-03  5.0938090125679401e-03  4.7369998571125055e-03  6.1370569581971459e-03  5.1877269113115698e-03  5.0792125551063615e-03  4.3491422179422409e-03  5.9118509241368137e-03  4.2844099113721569e-03  4.6605112675397803e-03  5.8311336940851692e-03  4.0927707580299504e-03  6.3438992812245359e-03  5.6631046191290895e-03  4.4668781583729810e-03  4.5421972738679565e-03  4.5649046002757725e-03  4.3134029352611403e-03  5.4502737566348384e-03  5.6022340816081068e-03  4.0550141376174608e-03  4.2528739805307858e-03  5.8693695642652415e-03  4.9762777381535429e-03  4.9578457843406434e-03  4.5788859903766405e-03  4.7915772023179350e-03  4.0564510061599536e-03  4.7309419664373778e-03  5.2543550318589075e-03  4.3404153960822697e-03  5.6115846136594542e-03  6.2762292985713095e-03  6.4530280866376827e-03  6.4980707513526753e-03  4.9603801744132064e-03  5.2279641931744078e-03  5.7864678372467806e-03  4.0548294081625864e-03  4.0554451738758577e-03  4.3060347281121021e-03  4.3748461433169511e-03  4.0444767888911156e-03  4.5761244208239000e-03  4.3920185555447466e-03  5.2775418062407870e-03  4.2682908633809042e-03  5.1091089489000681e-03  4.6726147836892570e-03  4.7262424470414458e-03  4.8906384134716182e-03  5.3122702650994337e-03  5.4211535785253229e-03  6.4680362786478842e-03  4.3799143789083885e-03  5.1366821960936882e-03  5.6583393123868717e-03  5.5102269399674251e-03  4.3076903418572780e-03  6.0746069639901392e-03  5.8713293436791578e-03  5.9926216364717495e-03  5.7614436671905118e-03  4.5837914920765993e-03  5.5986773193194526e-03  5.0698504510291020e-03  5.3202946375400110e-03  4.8413642193576838e-03  4.6690454124590506e-03  4.2212082093469111e-03  5.3519388745617239e-03  5.4362056539067295e-03  6.2114655963248265e-03  4.5357923684366626e-03  6.0921091914417896e-03  5.8921628710787181e-03  4.3513618131591726e-03  5.2024465238438514e-03  4.9827977605555714e-03  4.2057179938032579e-03  5.5315891521660818e-03  6.5725785046309203e-03  6.0061063054585619e-03  4.6049233951790921e-03  4.4077050093994192e-03  5.3253394024698380e-03  4.4281398872541974e-03  4.3580229478506474e-03  5.3377977734331838e-03  6.1772124402800664e-03  4.0491918129675715e-03  5.5180792821253408e-03  5.4645634376711645e-03  5.5447630340959521e-03  4.3263562744027184e-03  5.1414623946141134e-03  5.3412517472381299e-03  4.8003376038937692e-03  6.3731608451361955e-03  5.8791838873874123e-03  4.2064660832880074e-03  5.5478409369303285e-03  4.8693872284041109e-03  4.6896059098793354e-03  4.5257610596308832e-03  5.5590621148761928e-03  5.7261739337715429e-03  4.9667213926119736e-03  4.8235621723415655e-03  4.7518050061321013e-03  4.6134837426326653e-03  6.0977470261704015e-03  5.3991072720367319e-03  4.3070413037254373e-03  4.4541426996851131e-03  4.5081853193704889e-03  5.4302289598181334e-03  4.8017894086602401e-03  5.2651386108063403e-03  4.7282442006652868e-03  6.0532328861470546e-03  4.2300382826131718e-03  5.1164466245806305e-03  5.6558617214978232e-03  4.7671672481616060e-03  4.1684331540489082e-03  6.0512616021659643e-03  4.9864413371440526e-03  5.2613079772095414e-03  5.7836577044804239e-03  4.2380600784708549e-03  5.1832333665362169e-03  5.8856906108411778e-03  4.5216512943505836e-03  4.1431825174978237e-03  4.2717372248405197e-03  4.2139393358168959e-03  5.7346311631802796e-03  6.2909469797483922e-03  5.5310777197849813e-03  6.2301963899543209e-03  5.0724816774385326e-03  5.0508419199472854e-03  5.6651282479153308e-03  4.4243845155520281e-03  4.4596014215367756e-03  5.5516202533637624e-03  4.4864650124364193e-03  6.0299884858819068e-03  5.0567634452886884e-03  6.3838222504750877e-03  4.6255854789151634e-03  6.0070866934541804e-03  5.8706160233268356e-03  5.5450290464318982e-03  5.3356090074365174e-03  5.3366434863013094e-03  5.0558591448327025e-03  4.9577966189505345e-03  5.2410859069229590e-03  6.3891627279775917e-03  4.2269986252029546e-03  4.4322747920944568e-03  4.3315341977656612e-03  4.4755726819569854e-03  5.7566344966836153e-03  4.2156364022288458e-03  6.0289652860502432e-03  5.6365301706046882e-03  5.7382631726070107e-03  4.6351055678419701e-03  5.3901669880650014e-03  5.1857194181030375e-03  4.4362507097777150e-03  5.1239183980832832e-03  3.9571307970041707e-03  4.1642104866821241e-03  4.6574451212660272e-03  4.5779745656605924e-03  4.9109513870720049e-03  4.4071549235869169e-03  4.5686197605592956e-03  5.0141604205658219e-03  5.4760238613668667e-03  6.4716258700842719e-03  3.9626824146070634e-03  4.0632162880409788e-03  4.3154396032045296e-03  5.8074377262069890e-03  4.9946384519622428e-03  5.0477500010282497e-03  4.7828495292080954e-03  4.3128796747849488e-03  5.7481388010949003e-03  4.6788744931058023e-03  5.7574195947213708e-03  5.9305041581266182e-03  4.5789804036306539e-03  5.0394854074124109e-03  4.8190494842541348e-03  4.2985844884160891e-03  4.3049478247346737e-03  5.6001174277290440e-03  5.9542628244713966e-03  5.3467900460427769e-03  4.1946845735315970e-03  4.5551294221134672e-03  4.9373533396940656e-03  4.8381056022463974e-03  4.7634623197264359e-03  4.6614350573340405e-03  4.7597374770042321e-03  4.3888820979033566e-03  4.4264503868115300e-03  5.4785757093378925e-03  3.9611740661232089e-03  4.4505282988773548e-03  4.4753895784102578e-03  4.5957706483914593e-03  4.0550396884531390e-03  4.1952876829856435e-03  4.0688988207987211e-03  3.9612932230820158e-03  4.6272517184547581e-03  4.4193991599033875e-03  5.8713563645773729e-03  5.8527701487078665e-03  4.9755769810178934e-03  4.5046601717680431e-03  4.3111881118946174e-03  4.9231631074830688e-03  4.0504108252902380e-03  4.2252893579707096e-03  5.3233902421588319e-03  5.2432991272826973e-03  4.1869748067489094e-03  4.5719560713237848e-03  5.1132160158198032e-03  5.8363118988498768e-03  4.6028130242745623e-03  4.4559318913034865e-03  4.2549260931374526e-03  6.5436805420994145e-03  6.6563638592336081e-03  6.4084177428979120e-03  4.9748436535824569e-03  4.0527096495764081e-03  4.8320359734326801e-03  6.1578201036926721e-03  4.0557005014639873e-03  4.4452116991790021e-03  5.1245707761466194e-03  4.9059599223210543e-03  4.6502703804630436e-03  4.0466772415537443e-03  5.1531173916491615e-03  4.4437080980807607e-03  4.0602280091392136e-03  6.1958635208789756e-03  5.3864338733607912e-03  5.1579181886916656e-03  4.2477550553395010e-03  4.0513089257064447e-03  5.0775860450561266e-03  4.8520777299543684e-03  6.2484214579289262e-03  5.0561912216375926e-03  3.9660819763034936e-03  5.4055904457326193e-03  5.9977061217089999e-03  5.5634069417350414e-03  4.9665373902775603e-03  5.6648007386982772e-03  5.4163273091015277e-03  5.6374301201587559e-03  4.2523683184852792e-03  4.7000140397625402e-03  6.5633083753690487e-03  5.5686393609269899e-03  6.1272466643966308e-03  6.1882418668742310e-03  6.1150918340612910e-03  6.2915291941509485e-03  6.2962452058849929e-03  4.0539189274724661e-03  3.9583620182419722e-03  5.3917519444645328e-03  5.4368379154938690e-03  5.3214410352274040e-03  5.4753714036831058e-03  6.8332435251492740e-03  4.8064785194531509e-03  4.1810855338475592e-03  5.7234968452600492e-03  4.3212854710741573e-03  4.2569962640125010e-03  4.2150127376118212e-03  4.8417897827082645e-03  4.4117536236157251e-03  5.6405958096243432e-03  4.4793982690659326e-03  5.1927390568488867e-03  4.4807739196072111e-03  4.4068010829265893e-03  6.8419809180762211e-03  6.8540186036388827e-03  4.4434968194360372e-03  5.3500977265846066e-03  4.1783689791708399e-03  6.6748816539499191e-03  4.6920345261385965e-03  4.0437216697804300e-03  6.0675130794411985e-03  6.0833302998842004e-03  4.9205736675264769e-03  4.4946885164105325e-03  5.2589406737970721e-03  5.6554891607387206e-03  4.2092853190202843e-03  6.5483437388743201e-03  4.2994027450592165e-03  4.5157581289356858e-03  5.7589337382836780e-03  4.3848123443341281e-03  6.4955535961566399e-03  5.1749176030654953e-03  4.6292065953683738e-03  4.7496849209987830e-03  4.9807061685303525e-03  4.5559969747428659e-03  4.8828001879057132e-03  5.0358548541244086e-03  5.6802995715960003e-03  5.0263713417824808e-03  4.6059376413092592e-03  4.1477409577062333e-03  4.0480172276813400e-03  4.6671308881534642e-03  5.6944719574465652e-03  4.3068307996636263e-03  4.0509745648262610e-03  5.5382597794032193e-03  4.1450060851965231e-03  4.2203162869288722e-03  4.2000355161504145e-03  4.3458458588971436e-03  4.2587776135084004e-03  4.2258570523547772e-03  5.2265780346825840e-03  4.2302354761791765e-03  3.9629718358391583e-03  4.7943487545122664e-03  4.9769192540423226e-03  3.9603103322430932e-03  3.9622078209485068e-03  3.9624089446163276e-03  5.9725981635535925e-03  5.7874673190031643e-03  5.6016565309993244e-03  4.2162328469112350e-03  6.3443922974705897e-03  5.9119454823386378e-03  4.6091273941939875e-03  4.8508566917710525e-03  4.2619589205336985e-03  6.6573898127653911e-03  4.5350007495152285e-03  3.9644111624766928e-03  6.2852570720416442e-03  5.1628423423827957e-03  6.8778989287524147e-03  6.7138782865908062e-03  4.2105970483930230e-03  3.9613667636465002e-03  3.9568131283183629e-03  4.0245763998980636e-03  5.4141812724124421e-03  4.2163998152384844e-03  6.5297034838459273e-03  3.9653899891185602e-03  3.9693593759953100e-03  3.9632812118668486e-03  4.6732912910792661e-03  4.5690029844570011e-03  5.2449210142359618e-03  4.3075470151820458e-03  5.1796201589428669e-03  4.3265950049537778e-03  6.1842533068888258e-03  6.3105680739396798e-03  6.3312457499594653e-03  4.2584549958109182e-03  6.4250226822030396e-03  5.9858226930638728e-03  6.4805993977452491e-03  4.7833524010421503e-03  5.6774205401055192e-03  5.6553106163815094e-03  4.6949172523653195e-03  5.4165499621907712e-03  5.3299315476532912e-03  5.2464728110998837e-03  5.6011645352530490e-03  6.3613487884186561e-03  6.5332458480712651e-03  4.2422142978455375e-03  4.9317272571844538e-03  4.8719105828008129e-03  4.3449620494113569e-03  6.1971449665817876e-03  4.0605845399057476e-03  5.3564798112701829e-03  4.7483825156971913e-03  5.6624566464695122e-03  6.0486934216173113e-03  5.2543563949640788e-03  4.8119675608261489e-03  5.2078444764039984e-03  5.9174289714965019e-03  5.7936639772498549e-03  4.6478486401387922e-03  4.1970198740047555e-03  6.0967052966551163e-03  4.3643095909834517e-03  4.2945138258557239e-03  5.4326155257410540e-03  4.9257812882998742e-03  5.9049143398399043e-03  4.8646901894632295e-03  6.1469634771460831e-03  4.2560797718194567e-03  5.1782858228915920e-03  5.1275292561011382e-03  4.6468280686267028e-03  4.6375003931691519e-03  4.6002221077904313e-03  4.4776913765282112e-03  4.4929033738148084e-03  4.6211664846062721e-03  5.5116646017828314e-03  4.7433047318937490e-03  5.0547814387261565e-03  5.3822996629480273e-03  4.9536827671406930e-03  4.9031750396066089e-03  4.3821236874866118e-03  5.1622380706373271e-03  4.7619147865281559e-03  4.7117188489223935e-03  4.7127427316318504e-03  4.8129112135284844e-03  5.2898248005936871e-03  5.2514998323867062e-03  5.1244827631258885e-03  5.5728908248751192e-03  4.3514752711042975e-03  4.4958320910429535e-03  4.4809693847665359e-03  4.5501885328501374e-03  4.6082225340670453e-03  4.4965578091705153e-03  4.4421943467239360e-03  5.0487103749035670e-03  5.1983317422539602e-03  4.2649148498158746e-03  4.0733810927383136e-03  4.3329154117508093e-03  5.1334083396196379e-03  5.4739352766572527e-03  5.7451898352466986e-03  5.0111863801358394e-03  4.5459545326912874e-03  5.9268511618665934e-03  5.3474683663570621e-03  4.4059795758887594e-03  6.2193857063416050e-03  4.6762229014844859e-03  4.4788347977924945e-03  4.5159610057980927e-03  4.0602919329650409e-03  4.4162750429499404e-03  4.3220117506259101e-03  5.4645324271164379e-03  5.2111732938231823e-03  5.2725109493326422e-03  5.6392491537585491e-03  4.8055766511346009e-03  4.7318906619794069e-03  5.0019219210076342e-03  4.1815341486548235e-03  5.5177755684330558e-03  5.2567569156235462e-03  5.4699021518217561e-03  5.5532188096453017e-03  4.4775623654597831e-03  4.2911807520390399e-03  4.5991315617077404e-03  4.2924186967544797e-03  4.5863953911517655e-03  4.1910702575803597e-03  4.3171443026239565e-03  4.6716658890658394e-03  5.0661114580570366e-03  4.2106802815141467e-03  4.4530363456154664e-03  4.8157457502726242e-03  4.4505530899553950e-03  4.5417843294300641e-03  4.6154976666878539e-03  4.4248245422161695e-03  5.42022933502