<?xml version="1.0"?>
<VTKFile type="UnstructuredGrid"  version="0.1"  >
<UnstructuredGrid>
<Piece  NumberOfPoints="6486" NumberOfCells="12696">
<Points>
<DataArray  type="Float64"  NumberOfComponents="3"  format="ascii">0 2.5 0  0 0 0  2.5 0 0  2.5 2.5 0  1.25 0 0  2.5 1.25 0  1.25 2.5 0  0 1.25 0  1.25 1.25 0  0 0.625 0  0.625 0 0  0.625 2.5 0  0 1.875 0  2.5 0.625 0  1.875 0 0  2.5 1.875 0  1.875 2.5 0  1.770833333333333 0.7291666666666666 0  0.7291666666666666 1.770833333333333 0  0.9375 0.625 0  1.875 1.5625 0  0.642361111111111 1.163194444444444 0  1.341594827586207 1.883979885057471 0  0.46875 0.46875 0  2.03125 2.03125 0  0.3626104797979798 1.513178661616162 0  1.381740196078431 0.4564950980392157 0  0.9375 2.172619047619047 0  2.172619047619047 0.9375 0  2.096354166666667 0.4036458333333332 0  0.4036458333333333 2.096354166666667 0  1.684027777777778 1.163194444444444 0  0.3418803418803419 0.8693910256410255 0  1.642742622813391 2.162164207604464 0  1.275619849389031 0.8465650753054845 0  0.9136284722222221 1.434461805555556 0  1.732437511238546 0.3406962303960658 0  0.9714402568595876 1.029779313093998 0  1.52281746031746 1.485615079365079 0  2.1875 1.71875 0  1.06819722569879 0.2997236128493951 0  2.136114211309524 1.303478422619048 0  0.3125 0 0  0 0.3125 0  2.5 2.1875 0  2.1875 2.5 0  0.3200021620376328 1.192323085056694 0  0.6738456129277992 0.8304377375553881 0  1.757891808928991 1.861952730357003 0  1.5625 0 0  0.9375 0 0  0.3125 2.5 0  2.1875 0 0  2.5 0.9375 0  0 0.9375 0  0 1.5625 0  0.9375 2.5 0  2.5 0.3125 0  0 2.1875 0  1.5625 2.5 0  2.5 1.5625 0  0.7448220909826522 0.3003573636608841 0  1.027298850574712 1.871151477832512 0  1.331260495098891 2.197262878816185 0  1.207917681892289 1.582765010956622 0  0.4339993447432606 1.801186844743261 0  0.6337298768939392 1.443093039772727 0  2.049851190476191 0.6826636904761904 0  0.6584821428571428 2.219122023809524 0  1.89575676467455 0.9798457973793544 0  1.437570562095628 1.059380588255917 0  1.502090052505845 0.6987070896496241 0  0.2040860661083546 1.705323965099331 0  0.2083333333333333 0.46875 0  0.5070952039991439 0.2211150679997147 0  0.6916302856529919 0.5813591430410241 0  2.265625 1.953125 0  2.2265625 2.2265625 0  1.886424081252096 2.243391360417365 0  1.40625 0.202164758520858 0  0.2269345238095238 0.2269345238095238 0  1.152730869673694 0.5225850378741401 0  1.885631899587912 1.312095130148776 0  1.614808884009367 0.9049784971014416 0  1.890095442220658 0.5126535558463003 0  2.323168682795699 0.46875 0  2.268811725689575 0.2304742875213018 0  0.6002389442105756 1.967426444210576 0  0.1768313172043011 2.03125 0  0.2311882743104251 2.269525712478698 0  2.03125 0.176831317204301 0  2.280262553344767 0.6954945504579233 0  1.979219539285994 1.809922269642997 0  2.336309523809524 1.09375 0  1.09375 2.336309523809524 0  0.9314042474388009 1.662973812215543 0  0.1634067999087722 1.40625 0  2.337090640094896 1.40625 0  1.141616997467638 2.069311773587991 0  0.46875 2.338939559681489 0  1.542440307908715 1.734944797244472 0  1.556713687786879 1.956977865354753 0  0.8264238995344066 1.975424467820646 0  1.466326331454725 1.275271369760862 0  1.655675324257095 0.5444159974393489 0  0.3385416666666666 0.6479255698005697 0  0 0.78125 0  0.5236073939200119 0.984090461540625 0  2.091665741047893 1.519793517904215 0  1.71875 2.5 0  0.5356538886262603 1.623137930505009 0  0 1.09375 0  0.1932884281517095 1.015625 0  0.8569313582417669 1.2198915584249 0  0.8876981284879677 0.8329884081524883 0  1.115618488474214 0.7219586973356271 0  1.186950366204949 1.043465130075318 0  2.057459118787237 1.110823087309335 0  1.830651283878689 2.049810069572418 0  1.689107969301489 1.367247437031697 0  0.4921048768039656 1.298643370653124 0  0.8213975694444444 2.336309523809524 0  2.03125 2.5 0  1.049729400480002 1.283723261332814 0  1.308101375801673 0.6489479469700392 0  2.5 2.34375 0  0.4968777175037714 0.7562964879736076 0  1.40625 2.5 0  1.501347663534097 2.307027627307738 0  1.602813712048603 0.1926218191360736 0  0.8393082906308107 0.463778306132633 0  1.682663349152719 1.598471865581041 0  0.7774174680851571 1.560004941327907 0  1.554204170364662 0.3898593897892066 0  1.842184459051087 0.186443880058197 0  1.358107417651776 1.696381759610015 0  1.18859291992392 1.77598670078022 0  0.1875331222687418 0.7609599743339348 0  1.339536743965101 1.422080365801479 0  0.7788179348750389 0.9955343414928611 0  0.9062978492805438 0.1919636509126373 0  1.256007360640958 0.3160320559396114 0  1.09375 0 0  1.174986727221844 0.1594990293443933 0  2.34375 1.796875 0  2.318026474511116 1.589177949022232 0  2.34375 2.5 0  1.672742954892153 2.332882724550692 0  0.2683637361947215 1.874801596909639 0  2.174770749820102 0.5581009131310781 0  1.443279522965991 0.8870068372898454 0  0.3385416666666667 0.3571428571428572 0  0.78125 0 0  2.060421048269335 2.314363248763811 0  1.088078737088509 0.8967352118723447 0  1.087825368444708 1.454931510884769 0  2.018308232129541 0.8548495425854904 0  1.943987311736842 0.3246298523011434 0  1.71875 0 0  1.85337849796276 1.144833312386208 0  2.3486328125 2.1044921875 0  1.407588788651747 2.042968789119587 0  2.336309523809524 0.865366648092144 0  2.34375 0 0  2.5 0.15625 0  0.15625 2.5 0  0 2.34375 0  0.1638044648294291 1.242263417405867 0  0.356216654757926 1.032569427322806 0  0.3188217956111817 1.355736727000647 0  0.5924956460852111 0.36112522004736 0  0.6594216488965849 0.1603472116132387 0  1.841804599497131 1.72214349266521 0  0.15625 0 0  0 0.15625 0  2.115898634821499 1.894570904464496 0  0.7821877980253907 0.7129993435924866 0  1.003820447087786 0.4516053462784233 0  0.477562948779147 1.138333049293613 0  0.719493678605015 1.305655360135975 0  0.9772457618587566 2.020350128938537 0  0.8764738248887107 1.826219722709673 0  1.254787875123819 2.339010653832026 0  2.343597354852534 1.249982759769001 0  0.78125 2.5 0  0.46875 2.5 0  2.5 1.40625 0  1.09375 2.5 0  2.5 0.78125 0  2.5 1.09375 0  2.03125 0 0  2.5 0.46875 0  1.40625 0 0  0.46875 0 0  0 0.46875 0  0 1.40625 0  0 1.71875 0  0 2.03125 0  2.5 1.71875 0  2.5 2.03125 0  2.005424054645407 1.653223486966518 0  0.1538730573856537 1.559850281736677 0  2.33984375 2.33984375 0  1.166539506212474 1.922878979538754 0  0.3914885633949916 1.65887232812171 0  0.5795503163042564 1.766243562569382 0  0.399533125920212 1.946786875081388 0  0.7866324979014098 2.127719094551316 0  0.3654683023546834 0.1495701132219454 0  0.1527388747131078 0.6116379440619215 0  2.013737577140188 1.391056634712135 0  1.17635437372994 2.213329084238133 0  1.737118141866284 1.010577140843115 0  2.200707118087222 1.164723314085963 0  1.697018908736685 1.993548551451517 0  0.5387621649009668 0.6070503962352419 0  2.032805785855952 0.5330427622570983 0  1.082699501358059 1.667818725183932 0  1.503819781540653 0.5468420196858188 0  2.015409142866072 2.175941657590429 0  1.752057611265444 0.869642097111018 0  0.612251684107783 2.356045720700959 0  1.902817102342857 0.6607642211999982 0  2.159616561739693 0.7867739969338844 0  0.5120038350106624 2.197302352398502 0  1.888200216011548 1.919501662489862 0  1.495909909726654 2.16028358757309 0  0.489139876703609 1.443203008943564 0  0.8819175670410521 0.3301172743913011 0  1.882591144370812 0.8155965192707721 0  1.133979796994841 1.172526771862882 0  2.206217447916667 2.084147135416667 0  2.20361328125 2.36279296875 0  1.395746985657004 1.556054166359645 0  1.704383111516207 1.734750450338683 0  0.9575737847222222 2.36274223823052 0  1.035150984253136 0.1302833343179028 0  1.383966125325753 0.7651479963479179 0  1.64003252158672 0.6824316405528895 0  2.22550785055421 1.487078576356817 0  1.760964431499756 1.48495222505201 0  1.276460980673788 2.004207003584658 0  0.1341477688427096 1.828777507920502 0  1.542261434180652 1.155296658359034 0  1.334627911613854 0.9696897472490321 0  1.30794231473696 1.119420615785191 0  0.7028260459857245 0.4438906910721139 0  1.625757433094055 1.84268057552138 0  0.9818707849053143 1.165603626132254 0  2.0086489901463 1.243134585689553 0  1.934584460420609 2.374094051915812 0  1.798434376789567 2.38671361912528 0  1.206314791201715 1.382064292497919 0  0.6333752893366955 0.7023738550008095 0  0.7796219811205605 1.42573253164258 0  1.564399711917382 1.026040828857629 0  0.3385416666666666 0.4889012896825397 0  0.1041666666666667 0.390625 0  0.989112246382566 1.543537365516289 0  2.025724425454636 0.9846960595520872 0  0.6602885475034063 2.086117390485779 0  1.607130551925032 1.267198646640915 0  0.1317864544877056 0.8896173683400176 0  1.755387840017567 2.230364320056445 0  1.301540702984401 0.1216289692748247 0  1.433170657577442 0.3331052752740999 0  1.500459610550388 0.113513924782439 0  0.6494291520606965 1.029586599619295 0  1.010146149868299 0.794897284196169 0  0.3700844198238017 2.235390157870766 0  0.3360891767780704 2.36656279435396 0  1.876856241037701 1.437150669863757 0  1.778674102957329 1.245979347269706 0  0.5472829890977179 0.1005517127039925 0  0.4669074189005698 0.3416784232954367 0  1.472765289289269 1.850899166481903 0  1.555853593327178 1.608452097912802 0  0.6708955559113426 1.646561631116984 0  0.8164699620322933 0.5924479455478063 0  0.3167738989468366 1.758696809749795 0  0.2788007305565096 1.605499483471246 0  0.7821720982350511 0.181524936294752 0  1.376812251214195 2.313340247908297 0  1.785652202614777 0.5962261755537186 0  1.761467296310972 0.4679567244718574 0  2.2265625 1.8359375 0  2.3828125 1.9140625 0  0.5279531607054191 2.071552361614785 0  2.397573269551114 0.234375 0  2.383578172599618 0.3589298466020009 0  0.1024267304488855 2.265625 0  0.1164218274003825 2.141070153397999 0  0.2696857594953064 2.135405441512016 0  2.164961300137334 0.1375322943529536 0  2.137757548369486 0.2724194778647587 0  2.238873711826398 0.3626419179496562 0  0.1001414910226386 0.234375 0  0.2176339285714286 0.3478422619047619 0  0.2503620791333544 0.1061694061057066 0  2.336445461915368 0.1250451055247424 0  0.2154004640409726 2.3918124
[...]
<PointData  Scalars="f_49-3"> 
<DataArray  type="Float64"  Name="f_49-3"  format="ascii">3.4669386691089487e-38  9.6431553110379170e-11  2.0585384685306730e-53  1.2770499619329143e-57  -9.3952191447547285e-27  5.2186305103952199e-53  -2.5706945680820747e-43  -8.3752651178404779e-13  3.1689173916436675e-21  -7.6106649154532476e-05  -2.7985872501671711e-17  -1.3522291021902850e-41  9.1977158324329914e-25  8.0093594692571242e-57  6.9465485903478113e-41  6.2223060630738950e-55  2.6072302186875173e-47  -4.6249056029516253e-35  5.0043271217173870e-24  -3.6891317401526787e-16  -3.7929425101131315e-38  8.9632419752444572e-11  1.5174193786139173e-29  6.5269404710350710e-09  7.0078390379791092e-44  2.8642664023302539e-18  -1.9281668959224752e-28  4.7276519267542992e-35  -1.1278461521958382e-45  -2.1608080568225554e-46  -3.4367113752373625e-31  -4.3426476317048998e-33  3.2797440485907445e-05  4.9625697745795492e-38  5.4506978902089762e-23  1.7070391572756073e-17  7.0892719605062046e-37  2.8607942478558273e-14  1.9935859449453256e-28  1.1109710372201224e-46  -1.2118277685497346e-22  2.7314497313626364e-46  -1.8997057603458421e-13  5.0527973085949535e-07  -1.0718443400018323e-56  2.4209592337232986e-52  1.6542815270774131e-11  1.9694180576394723e-08  1.6513914963429359e-37  1.4748768148256355e-35  4.2681545162491253e-21  4.3712253900326642e-40  -2.5841054527761431e-48  -2.0349687018765707e-54  5.2328044225121933e-08  -4.4174581011868281e-18  -4.2123751513180845e-42  1.2914653841222921e-57  1.9874912396270350e-31  2.7223819004665133e-44  -2.4674997529264956e-55  5.2974080911850578e-16  1.7361953695590246e-26  6.3412550605281490e-36  1.9144803025887476e-23  -3.1707164818926192e-24  8.8834608188538806e-16  -8.9594691699879014e-43  -1.9078442921854340e-34  -5.5590742922034675e-38  -2.4458902490997702e-25  3.8808028086744512e-29  -1.7371980430261185e-21  1.3878628390248191e-04  5.0049905755987680e-14  -5.9280753448538425e-12  -3.4517261152353715e-49  9.1928724210562457e-50  1.3511142455959677e-43  -7.4996026707862808e-31  -5.3626907478022717e-10  3.2905319593938298e-22  4.8449620402077149e-38  2.9114496188695518e-32  4.4074798716117955e-39  7.5940266076410320e-52  -1.4614812287069616e-50  -1.1419957967050885e-28  1.1147693741640596e-28  7.7183328113491876e-35  9.6502959359228670e-45  -1.9360112254341623e-49  2.3854769299866042e-41  2.2584693977216947e-50  1.3818159692151781e-38  6.1120661191058459e-22  -1.9447276268707150e-15  9.9201535804063424e-50  1.2471070650891894e-31  -7.1604038613571710e-38  4.2401693958190295e-31  5.3975949816229927e-34  -1.8835008465623661e-29  7.5182454509427934e-27  1.7811046861872101e-34  8.1073718772521576e-04  -4.9564043789096008e-06  1.4759580541592865e-07  8.1659327225173844e-44  2.6806931641504506e-45  -4.2317158461831208e-21  2.2754181608039507e-10  3.5484210499897107e-09  4.9899376115395456e-14  2.2392333540147664e-13  2.0980259322260875e-19  -6.5922015644197186e-20  -3.1334829730821972e-42  3.4226306134582314e-40  -1.2208770424414117e-32  1.3321418464302828e-12  -1.1145236951022186e-37  1.5807568291683665e-49  3.9815511570580567e-18  2.6081491748153113e-24  1.7523425890716309e-56  1.5706474806583399e-05  8.6324727351129110e-43  1.7686460222512746e-39  1.6268139514889514e-35  -2.9688514461439823e-15  9.4541875769859091e-33  6.2326182350894446e-19  -8.2450780983641058e-33  1.0876268271277338e-41  3.0334762491700179e-27  5.5194814892091485e-26  2.1555026810470351e-04  3.6954536493134678e-24  1.4232455659746889e-10  7.0439899826714736e-20  3.4729214690552588e-26  1.0804174324867918e-24  1.5588505550400900e-25  1.1745234510636575e-50  1.8487569451525439e-49  2.9189900324232091e-55  1.2869749718249726e-41  -1.9715321921857848e-25  4.2941044078554299e-47  -5.0172895155471465e-27  9.1216563714024987e-09  2.1389472392725481e-18  5.8938057492346489e-48  -1.8691961649417566e-17  4.8634476710795893e-20  -2.2526266961334634e-41  -4.3352067792137407e-43  -1.0324531976534074e-37  -3.4960590729938083e-37  1.7310695627268287e-52  1.3816563893954235e-33  7.2012970040853767e-51  1.2190515392570577e-50  2.0022718970403405e-54  3.6407518039415492e-39  2.5443079640201534e-35  1.4613439137971963e-12  8.5580011162868094e-08  9.6328296053646857e-15  -2.2762230850927523e-13  -3.1528062038083201e-17  2.4702463618697894e-37  -1.3217483401909358e-12  6.2468358225878866e-09  6.9158464924765127e-46  -1.2849187709113507e-11  -1.1504806866748881e-18  1.7739337161112522e-09  1.1049510260210172e-13  5.4333306204859644e-30  3.7623494608585425e-25  1.3760807187570038e-38  1.7983788619912896e-49  -9.1431575172271680e-42  1.0304118721632884e-41  1.6020582395487699e-53  7.2686397173506472e-43  -6.5604457919230924e-55  -1.0331807605184409e-54  3.2267331958476275e-45  5.5441710148747173e-56  2.7740233253229633e-31  -2.4675139434154074e-15  -2.6094017614561354e-05  -6.0114849100282368e-15  -2.4844196316697152e-22  6.6535512154793892e-28  2.0266571598497935e-54  -6.3237092520712677e-55  -8.1763554327132818e-42  -1.8634172148796006e-18  5.9495834182897933e-53  6.1586069531318864e-29  -3.1829895002709915e-21  -7.3430318970262446e-25  -7.5111562049182778e-28  5.6261971568596231e-34  2.7160587833687222e-13  2.8179814350812633e-03  5.8568540188126051e-41  6.8476475922216049e-35  -1.5062323920204610e-34  3.1382673192614457e-46  4.0573747168416655e-37  2.1973093302817850e-07  -1.5791796548840110e-43  4.8594786542402506e-23  2.7148482087016188e-29  4.6424319973993529e-45  -2.9985983589438387e-34  -4.6830310295472889e-38  8.2910205274283315e-39  -3.2315512711578740e-45  -1.8254547999270802e-33  2.6976526803478895e-40  1.3216027916698783e-36  5.6447971244903170e-16  1.0191587843058373e-18  -1.9972521064660321e-37  2.2655831821223184e-18  2.9310813562957820e-48  2.6581932009237764e-51  1.1059371843835418e-26  1.5228282533175856e-34  -5.0261575374676025e-40  6.3132342019457881e-23  3.6863244391237508e-26  -1.3347963149193499e-31  8.7354118011901480e-47  -3.7612580824849260e-35  2.8868707691841161e-31  -5.0150734513904901e-24  -2.9527936844324299e-28  2.2353473721983320e-23  -8.9396494465954953e-23  -5.4676343568490346e-13  7.4205128971121497e-34  1.7958816592060533e-15  -2.3216677118621031e-41  5.3232480001601103e-46  2.3866357313804244e-44  2.6137334904620998e-21  4.3002358401907616e-08  4.1209508900713249e-16  9.1905519708305172e-30  6.8014831648026962e-06  -4.3230308194504650e-05  4.2962037163073996e-20  -2.6509210771085268e-41  -9.4985914145046643e-32  -5.7147017197221902e-30  -1.8953425648274616e-07  1.0463366159975358e-40  -2.7451910495360216e-29  -1.2003426031610074e-29  3.7678049862681986e-34  2.5041856711381440e-09  1.3336774613396499e-17  2.0173693491374638e-35  5.5626318878568543e-38  -1.0190488385218700e-37  1.1013579028054409e-34  1.2534269948451962e-16  -2.8377260417753950e-10  3.3740617493363962e-31  1.1305520058366925e-30  3.6853260143112282e-21  -2.9577432533202389e-13  -4.8658556541457396e-23  -2.0555613881838948e-19  -6.0609470682871457e-19  4.8561024433752799e-39  1.2896199375655313e-35  -5.1788169147683228e-36  -1.5944688253580365e-47  -7.4963368117297601e-52  -2.1540481916360909e-30  5.7728969650240051e-54  -1.0597355546528189e-53  1.5231375515258830e-33  1.4565802649497960e-30  1.6500158741289420e-31  -4.3225925519993344e-48  8.1711602561133059e-48  7.3941496636040451e-50  -5.0820237606391033e-08  1.1071033190242148e-06  -2.1819063118598412e-12  2.1238646755029950e-51  8.9121799963240737e-37  8.1311715125534127e-36  -7.4794350724068670e-12  -4.7965137556103871e-38  -9.0294120657761669e-19  -1.0486989067406080e-23  2.3890394041729251e-24  -3.6146200392547895e-28  8.1161429852583199e-32  8.2308612073565371e-12  2.0304297207571860e-26  2.7360511773568197e-42  -1.1102878345128131e-51  -5.1501809961940812e-52  4.3693466197697932e-53  -1.5021604535634588e-10  -1.7490197092368354e-27  -1.8906484489438841e-26  -8.5849493912897077e-30  -6.5540100423766877e-47  4.4587694681060070e-29  -2.7032113137768162e-39  7.6328139578259102e-06  1.3666878270608751e-21  3.0867285467396721e-24  7.6275384790188941e-46  2.8277260502121447e-19  -7.0273243499783874e-47  7.0675012598178034e-34  1.2248076711577174e-10  -6.8168234526254366e-51  -7.4081269031962458e-06  2.4971702540552959e-12  -1.6337422470799688e-43  2.9865603998239195e-42  2.6192084016493119e-42  -3.6177768422219152e-43  -9.9887780856512341e-18  -6.2001558993389615e-14  3.5502210744115622e-52  1.8013061486199914e-47  1.6127818120392941e-12  -8.9702366174286404e-38  -2.5910572466908685e-32  1.4373060459524050e-42  2.5963981479038682e-40  6.3612447592545730e-52  3.5120131561272036e-36  -3.7799869071205104e-25  -2.2669008912351052e-39  5.0686035929708593e-16  5.1797189493864618e-04  2.6815581493022418e-05  1.7866688129470963e-03  -3.6550850147191533e-34  -7.0271971733756822e-20  1.1469766572390220e-12  1.8335839250698718e-51  -5.9837218908586594e-52  1.0667657824886796e-40  1.1744128392985744e-36  1.8341859547095479e-55  -2.1935307051486806e-40  4.7459524675489269e-44  -3.8470770189900858e-26  9.3545265995474338e-50  8.3464267347161521e-33  5.9551235711338258e-39  2.7493478499537648e-32  1.0601952507507705e-27  1.0491623130440771e-23  -2.1326226236826745e-16  2.2931132591666876e-11  3.2608744962147749e-47  7.7569718916976064e-29  1.1004806518745687e-16  -5.9937868266451737e-20  7.4379191156779953e-43  5.4155035157944677e-08  2.2444891204995301e-14  8.1411670750633242e-11  1.2498689126212179e-15  -2.6429181668234490e-40  4.5923884217150072e-15  5.0445584588085422e-25  9.8321334629810760e-22  9.6529026234952297e-29  1.1569446375661093e-32  -8.9035656542821813e-49  6.9204221868849312e-19  -8.6066548753511238e-25  1.2171462073203440e-15  3.5109303929606849e-37  3.1947900660392046e-06  3.4718187946727656e-12  3.9506095023586658e-47  1.9298810551900212e-26  -8.1390828072041855e-36  -2.1217882479691813e-49  5.7104912461535271e-18  3.5409761077673202e-03  1.7838175900261537e-08  -5.1290210251671289e-40  -1.1082147128697269e-43  1.2376431643764257e-24  1.8083420846529089e-43  1.1093976021274093e-41  1.0506707744399258e-18  1.4985198820671846e-06  6.0437717626419712e-52  -6.2709304790030187e-22  -3.3369182764080932e-22  3.2438438322892676e-20  3.2174931213068502e-48  9.7871899041684257e-23  -1.0740107726166269e-18  -1.6559417067397343e-35  4.6103169503581393e-05  4.3984883721239861e-09  2.9928138543591128e-42  1.8372097924958814e-19  1.1533549051913414e-31  5.8128558141122139e-39  1.1035036646706978e-38  4.2999898259041208e-14  3.0345952218414074e-11  -2.4537161501150056e-27  4.4298967874628887e-35  5.0454179829448399e-38  1.6942348150585554e-41  1.2539442389035084e-17  1.4654599385170831e-22  -4.5206041020485551e-40  -9.9168181748568333e-37  3.3795093747954765e-45  1.7185162387764102e-27  3.2526230669039657e-30  -5.8977362089496454e-31  1.7331329337773285e-34  6.3966854528985276e-18  1.0612332299689769e-48  -8.2338730655444919e-22  1.1227026975337228e-17  1.4902634577607514e-39  2.8225691313736120e-53  4.1849278617505275e-09  3.0496507482411520e-32  6.8121550773895548e-27  6.8737965370739818e-21  1.2562966673061591e-49  1.2426929477043556e-24  9.0004344226442548e-10  2.0615249205294297e-37  -2.2093357405894077e-51  -2.2484043488658248e-47  -7.4141704627476876e-43  -1.0299615209359331e-17  1.6784897571800659e-04  7.1245083563471890e-20  -5.3201360513103068e-06  2.4082912325594239e-29  5.5266373350856920e-31  3.6089027589415932e-13  -2.3235219588025649e-46  1.6567816582770898e-45  6.4990855833996912e-15  -6.0901774982032524e-38  1.5554696028634421e-06  7.6563285146951856e-31  2.2145502511695244e-03  8.1379340595932300e-43  2.6022407801389848e-15  4.9179053435795504e-16  2.1390985007852759e-24  1.5901242492105679e-27  -2.1527930862732169e-29  1.6475635155128020e-27  4.0715054772106726e-28  2.2419884018517555e-25  -6.8004289198802305e-15  2.4152678126642086e-40  1.1129249555005801e-45  3.0819963633334482e-49  -8.1505255884660751e-36  9.7049127171054951e-11  1.1203212669115896e-44  -7.2815524706091690e-13  2.9523659614545193e-23  2.7336737703565160e-12  -1.7195583895478395e-32  1.6025454484550045e-17  2.0479721157462646e-29  2.0944142608784844e-44  -2.5635915473127752e-29  5.2424171609224711e-54  2.4914540099199832e-49  -2.3097065688109119e-38  9.7849255302420676e-42  -3.8956479612266272e-26  5.7777113001973181e-46  1.2333666767154599e-41  1.0718885335145849e-30  1.9916450597680791e-20  -8.8804972579427529e-15  8.3399915035804157e-56  1.0252210319376767e-54  -3.7259576047848342e-41  6.6800836298677364e-21  -6.0435162664526505e-25  -2.3661065566742235e-23  -5.7583309906772486e-36  7.5062371851473294e-48  -2.3221683589315285e-20  1.9142500049456629e-34  -3.1503864671872642e-17  7.2813857548371079e-08  -7.5496531629736395e-41  4.4402536323099348e-23  -1.4865847983719539e-28  1.0089678660361780e-39  7.0875512832527580e-40  1.3415132021160555e-24  1.8395324045722745e-17  8.4397171838793334e-23  2.6516517510888092e-49  -1.5117824859004284e-34  -7.1524106118378182e-28  -4.7034372940830676e-36  -7.4555968248079047e-37  -1.6090778375003916e-39  1.7541573914293796e-28  -4.9845512607087269e-45  3.0273426757140238e-44  4.5409895576880411e-27  -5.7353868137957907e-55  -5.9200903141612608e-43  -4.8074006980060123e-43  -9.7421412021622122e-40  6.9003121547213561e-53  -1.2122918234160196e-49  1.7933917975036776e-53  9.7799191005966591e-54  6.6738068171305616e-34  3.4411875991365607e-46  1.7180767435872210e-09  4.1256998953976807e-09  -1.2249890195053931e-31  9.2792592078384012e-40  1.2919936160179664e-43  -2.0329291771096583e-32  2.1789268617839957e-54  6.1222092868053424e-50  1.4379527665208761e-25  -2.2148986044641135e-26  -8.7848832066066196e-52  1.6128038058099301e-32  4.5279215870658794e-23  6.8157787317279557e-18  -2.2338922491325571e-40  -5.9433007324222935e-38  -9.0629615527723077e-50  -9.7610010285165578e-09  1.5754128275185360e-06  1.2586128637948587e-08  4.9803373239609952e-27  6.0376273042457070e-53  2.8438564807100517e-35  -1.3194469434449035e-08  1.2340430315004100e-53  3.9115827146409873e-35  -2.1008036964956341e-34  1.2046722726714373e-33  2.5461888561669386e-35  5.8968331945359590e-55  4.9008109255130402e-29  1.2731215107565583e-42  -3.2510108246305950e-53  8.0207731352719514e-05  -1.0225137722040039e-17  3.1223945506864334e-26  1.5389442763462744e-47  7.9267634755677738e-53  6.1331845526499989e-24  1.1676168571340732e-35  -3.8529358191004743e-15  -2.5437939010720405e-31  6.9245309887619661e-55  3.3612243814734623e-22  2.5300009910365051e-07  3.5532601082710690e-14  6.0219528062145443e-33  1.9916785496257673e-13  -9.8881053723775236e-22  1.4981795883581629e-20  -1.2240674145379627e-47  9.2605631009039841e-39  -2.3847893162247613e-10  7.2101032856792498e-15  -4.5868380322894358e-15  3.9560433748471691e-17  -1.6270290853288417e-15  7.3584893941289629e-11  -2.1319847204501788e-11  -1.0607538994946901e-51  -1.3349794768541822e-54  5.2866552203740157e-23  4.9728363698192658e-19  -1.7163786624929429e-23  2.2495868930078480e-16  -3.2926582183460599e-07  1.4951881064317065e-36  1.4773915361347425e-48  2.4530970915026481e-22  -1.6680130515854248e-47  5.1971217250156577e-50  1.3359798547305142e-50  2.8268936833379984e-31  6.8175680310502369e-47  1.2106183096838740e-18  2.1296185879318622e-44  -4.5355368259151498e-29  4.8867846413018127e-37  -5.0774703769374513e-39  1.1611865858707256e-11  3.7213772978550384e-10  1.5889669489278534e-44  -1.9534137586727478e-29  1.6771793612422985e-51  -8.4035052145506784e-11  1.1445963067565613e-29  1.8116558280408308e-54  -1.9224771114053673e-10  1.9922724634072984e-09  -3.0332188641863601e-33  -1.0695800615029944e-42  2.3690365537832104e-20  8.4393609639504831e-22  1.6525132583083434e-47  -2.2753001052155194e-13  -1.3045674676979384e-49  -1.1176242457884795e-45  2.0030764765610319e-21  -3.8382363880503280e-45  3.1922480779844641e-04  -2.1209397511814139e-21  -5.2759799034970115e-37  -9.2473503697470100e-32  3.6142275977714843e-26  6.1182893979549146e-43  -3.7861001813876191e-38  5.3682532072356384e-30  2.2532353859471395e-16  4.9990379275165380e-29  2.4673568030715954e-40  6.7882097127367423e-50  2.9616649309705520e-51  5.3373624420370327e-31  -5.2434517529336167e-13  6.8251196417686915e-41  1.0383765919090078e-51  -6.4970701268925219e-26  5.6116908034874570e-54  -2.9182246928768494e-43  1.3735028393177590e-50  9.1285288563394845e-37  1.4136139054249820e-38  -1.9003323174953660e-43  -1.0441142547015321e-19  -1.4738639360328130e-41  1.1050408475453156e-53  1.3830501823317556e-39  -5.9153637619117066e-36  -4.9070362831426872e-54  2.6049606288620784e-53  9.3253703767140253e-54  6.3272426661647153e-09  2.5423522430362201e-12  -8.9492045622279669e-14  -5.7283977429171034e-43  -3.5901238676678486e-05  1.1354448130616134e-19  1.8993915651989037e-42  2.5601749137485685e-26  2.0824481671666642e-39  -1.3754330603735124e-12  2.3417176824496792e-33  2.4784117479812297e-55  -8.4688892130097584e-16  9.7544068515746933e-33  -3.6417148334980171e-08  3.4873159594341129e-06  2.6006532823618061e-46  1.5094542087235834e-57  1.3143797201013852e-56  9.7727490638376108e-57  -1.2617408439846441e-16  1.9601456754775191e-43  -4.0366081961791317e-05  -7.0938577523134828e-55  -5.3055990342349993e-55  -3.3269348112446081e-56  2.1623276490018389e-39  4.2577326830450357e-35  1.5977373713242974e-21  -1.8830524334797748e-40  -3.8043188508074137e-28  -3.5160195186055616e-41  -2.3544575389192732e-09  5.1827124023397943e-06  -2.2880539968368853e-07  2.5167182802584322e-48  -3.9520998933852046e-15  1.6437007835869449e-10  3.9242129896564467e-04  -7.6316687585871636e-29  1.5527022213110240e-13  1.6114314420465209e-19  -2.3188325055513732e-32  -9.3815152799499621e-17  -5.2485491149529484e-18  -1.0483294497672096e-19  -1.5734430408811015e-14  7.7528668367737516e-04  4.3275207167247174e-03  -1.3812392952162847e-47  1.3358934040400649e-33  2.4343979305314505e-28  1.3009575567233631e-45  2.0839549415593294e-07  6.7979538625879982e-52  -5.7534788443341019e-18  1.0689899585357294e-30  1.2369566832161163e-16  2.4316160516594241e-06  1.0215515751894385e-25  5.7759225837410851e-30  8.2856057810840813e-29  1.0551070723964858e-10  7.1560294458319790e-14  4.7134601931520002e-42  -6.7887905846328276e-49  5.7794523696628914e-07  1.8753896745111471e-45  2.3453962864905679e-47  1.9687241891258050e-17  -1.0499634380605064e-32  5.1044765919207803e-14  1.8941856116357956e-33  -4.3987451556602677e-11  -3.9663031719809272e-48  -5.4595848063530198e-22  -1.4991886658174126e-23  1.5166895291059556e-36  1.7863939290884878e-38  6.3153144359918347e-40  1.0470399745608067e-42  -1.8682197922458823e-42  -4.8678778764001898e-33  -3.1369379257202722e-15  6.0616515646673369e-32  -1.9901081042632428e-25  -5.7092669055098355e-25  -1.4398282647798420e-25  -3.7858303563245944e-26  3.5260877502326197e-40  8.8398705090452700e-28  1.8203369362059151e-36  1.0648680127610671e-38  -4.8550164621620493e-30  3.8057378162898257e-30  -6.2377464856284007e-20  1.0205552802177628e-20  -1.0555081623806862e-22  -1.5300659471958079e-18  2.3614941908341897e-48  2.6971909596327133e-38  1.6391999527640889e-36  -4.3351950933753624e-34  -7.5756525366995677e-34  -8.9467245826549481e-36  7.3901807078942828e-41  8.2913473409612474e-30  -8.5589470553199591e-32  2.9290330797026824e-47  -4.1321680152385730e-52  -2.3842347345126667e-45  1.1877748630389793e-23  8.8547778314814503e-16  5.8226746291247621e-12  -1.0728577823227548e-30  4.8363934542755658e-44  -3.0126978496107972e-12  5.8893646190029396e-30  2.7614766624210340e-42  4.4843153597548509e-05  -8.6027070572766890e-43  9.3747141560923130e-45  2.5514855810128478e-44  -1.0658814790516527e-52  9.9077856747904762e-45  4.7576391230513517e-38  5.7923750180033691e-17  9.9477036689851314e-27  1.7083636819625372e-24  5.7373532582796989e-13  1.0648274595657011e-35  4.1908847082976539e-39  -5.6959663042134359e-26  7.0672094538969010e-53  -7.7093925635032685e-23  3.3540116460296561e-23  6.7295512932275363e-16  1.7238937710824828e-14  -8.8018533517848651e-36  -4.3003689391863041e-40  7.5189363716351945e-41  4.3771516050096571e-39  1.43730840