<?xml version="1.0"?>
<VTKFile type="UnstructuredGrid"  version="0.1"  >
<UnstructuredGrid>
<Piece  NumberOfPoints="6486" NumberOfCells="12696">
<Points>
<DataArray  type="Float64"  NumberOfComponents="3"  format="ascii">0 5 0  0 0 0  5 0 0  5 5 0  2.5 0 0  5 2.5 0  2.5 5 0  0 2.5 0  2.5 2.5 0  0 1.25 0  1.25 0 0  1.25 5 0  0 3.75 0  5 1.25 0  3.75 0 0  5 3.75 0  3.75 5 0  3.541666666666667 1.458333333333333 0  1.458333333333333 3.541666666666667 0  1.875 1.25 0  3.75 3.125 0  1.284722222222222 2.326388888888889 0  2.683189655172414 3.767959770114943 0  0.9375 0.9375 0  4.0625 4.0625 0  0.7252209595959597 3.026357323232324 0  2.763480392156863 0.9129901960784315 0  1.875 4.345238095238095 0  4.345238095238095 1.875 0  4.192708333333333 0.8072916666666664 0  0.8072916666666665 4.192708333333334 0  3.368055555555555 2.326388888888889 0  0.6837606837606839 1.738782051282051 0  3.285485245626782 4.324328415208927 0  2.551239698778062 1.693130150610969 0  1.827256944444444 2.868923611111111 0  3.464875022477093 0.6813924607921316 0  1.942880513719175 2.059558626187995 0  3.04563492063492 2.971230158730159 0  4.375 3.4375 0  2.13639445139758 0.5994472256987903 0  4.272228422619047 2.606956845238095 0  0.625 0 0  0 0.625 0  5 4.375 0  4.375 5 0  0.6400043240752655 2.384646170113389 0  1.347691225855598 1.660875475110776 0  3.515783617857982 3.723905460714006 0  3.125 0 0  1.875 0 0  0.625 5 0  4.375 0 0  5 1.875 0  0 1.875 0  0 3.125 0  1.875 5 0  5 0.625 0  0 4.375 0  3.125 5 0  5 3.125 0  1.489644181965304 0.6007147273217681 0  2.054597701149425 3.742302955665024 0  2.662520990197781 4.39452575763237 0  2.415835363784578 3.165530021913244 0  0.8679986894865213 3.602373689486522 0  1.267459753787878 2.886186079545454 0  4.099702380952381 1.365327380952381 0  1.316964285714286 4.438244047619047 0  3.7915135293491 1.959691594758709 0  2.875141124191255 2.118761176511833 0  3.00418010501169 1.397414179299248 0  0.4081721322167092 3.410647930198662 0  0.4166666666666666 0.9375 0  1.014190407998288 0.4422301359994293 0  1.383260571305984 1.162718286082048 0  4.53125 3.90625 0  4.453125 4.453125 0  3.772848162504192 4.48678272083473 0  2.8125 0.404329517041716 0  0.4538690476190476 0.4538690476190476 0  2.305461739347387 1.04517007574828 0  3.771263799175824 2.624190260297553 0  3.229617768018734 1.809956994202883 0  3.780190884441317 1.025307111692601 0  4.646337365591398 0.9375 0  4.537623451379149 0.4609485750426037 0  1.200477888421151 3.934852888421152 0  0.3536626344086022 4.0625 0  0.4623765486208503 4.539051424957397 0  4.0625 0.353662634408602 0  4.560525106689535 1.390989100915847 0  3.958439078571988 3.619844539285994 0  4.672619047619047 2.1875 0  2.1875 4.672619047619047 0  1.862808494877602 3.325947624431087 0  0.3268135998175443 2.8125 0  4.674181280189791 2.8125 0  2.283233994935276 4.138623547175983 0  0.9375 4.677879119362977 0  3.08488061581743 3.469889594488945 0  3.113427375573758 3.913955730709506 0  1.652847799068813 3.950848935641292 0  2.932652662909449 2.550542739521724 0  3.311350648514189 1.088831994878698 0  0.6770833333333333 1.295851139601139 0  0 1.5625 0  1.047214787840024 1.96818092308125 0  4.183331482095785 3.03958703580843 0  3.4375 5 0  1.071307777252521 3.246275861010018 0  0 2.1875 0  0.386576856303419 2.03125 0  1.713862716483534 2.439783116849799 0  1.775396256975935 1.665976816304977 0  2.231236976948428 1.443917394671254 0  2.373900732409897 2.086930260150635 0  4.114918237574474 2.221646174618671 0  3.661302567757379 4.099620139144836 0  3.378215938602977 2.734494874063393 0  0.9842097536079312 2.597286741306247 0  1.642795138888889 4.672619047619047 0  4.0625 5 0  2.099458800960004 2.567446522665629 0  2.616202751603346 1.297895893940078 0  5 4.6875 0  0.9937554350075428 1.512592975947215 0  2.8125 5 0  3.002695327068194 4.614055254615477 0  3.205627424097207 0.3852436382721472 0  1.678616581261621 0.927556612265266 0  3.365326698305438 3.196943731162083 0  1.554834936170314 3.120009882655813 0  3.108408340729323 0.7797187795784133 0  3.684368918102174 0.3728877601163941 0  2.716214835303553 3.39276351922003 0  2.37718583984784 3.551973401560441 0  0.3750662445374837 1.52191994866787 0  2.679073487930202 2.844160731602957 0  1.557635869750078 1.991068682985722 0  1.812595698561088 0.3839273018252746 0  2.512014721281916 0.6320641118792227 0  2.1875 0 0  2.349973454443689 0.3189980586887866 0  4.6875 3.59375 0  4.636052949022233 3.178355898044465 0  4.6875 5 0  3.345485909784306 4.665765449101383 0  0.536727472389443 3.749603193819277 0  4.349541499640203 1.116201826262156 0  2.886559045931982 1.774013674579691 0  0.6770833333333334 0.7142857142857143 0  1.5625 0 0  4.120842096538671 4.628726497527622 0  2.176157474177018 1.793470423744689 0  2.175650736889416 2.909863021769539 0  4.036616464259081 1.709699085170981 0  3.887974623473683 0.6492597046022868 0  3.4375 0 0  3.70675699592552 2.289666624772415 0  4.697265625 4.208984375 0  2.815177577303495 4.085937578239174 0  4.672619047619047 1.730733296184288 0  4.6875 0 0  5 0.3125 0  0.3125 5 0  0 4.6875 0  0.3276089296588581 2.484526834811734 0  0.712433309515852 2.065138854645612 0  0.6376435912223634 2.711473454001295 0  1.184991292170422 0.7222504400947201 0  1.31884329779317 0.3206944232264773 0  3.683609198994263 3.44428698533042 0  0.3125 0 0  0 0.3125 0  4.231797269642997 3.789141808928991 0  1.564375596050781 1.425998687184973 0  2.007640894175573 0.9032106925568466 0  0.955125897558294 2.276666098587227 0  1.43898735721003 2.611310720271951 0  1.954491523717513 4.040700257877075 0  1.752947649777421 3.652439445419346 0  2.509575750247638 4.678021307664052 0  4.687194709705067 2.499965519538002 0  1.5625 5 0  0.9375 5 0  5 2.8125 0  2.1875 5 0  5 1.5625 0  5 2.1875 0  4.0625 0 0  5 0.9375 0  2.8125 0 0  0.9375 0 0  0 0.9375 0  0 2.8125 0  0 3.4375 0  0 4.0625 0  5 3.4375 0  5 4.0625 0  4.010848109290813 3.306446973933037 0  0.3077461147713075 3.119700563473354 0  4.6796875 4.6796875 0  2.333079012424948 3.845757959077508 0  0.7829771267899832 3.317744656243421 0  1.159100632608513 3.532487125138763 0  0.799066251840424 3.893573750162776 0  1.57326499580282 4.255438189102632 0  0.7309366047093668 0.2991402264438908 0  0.3054777494262156 1.223275888123843 0  4.027475154280377 2.78211326942427 0  2.35270874745988 4.426658168476266 0  3.474236283732569 2.021154281686229 0  4.401414236174444 2.329446628171927 0  3.39403781747337 3.987097102903034 0  1.077524329801934 1.214100792470484 0  4.065611571711903 1.066085524514197 0  2.165399002716117 3.335637450367864 0  3.007639563081306 1.093684039371638 0  4.030818285732145 4.351883315180857 0  3.504115222530889 1.739284194222036 0  1.224503368215566 4.712091441401919 0  3.805634204685714 1.321528442399996 0  4.319233123479386 1.573547993867769 0  1.024007670021325 4.394604704797005 0  3.776400432023095 3.839003324979723 0  2.991819819453308 4.320567175146181 0  0.9782797534072181 2.886406017887129 0  1.763835134082104 0.6602345487826022 0  3.765182288741625 1.631193038541544 0  2.267959593989681 2.345053543725764 0  4.412434895833333 4.168294270833333 0  4.4072265625 4.7255859375 0  2.791493971314009 3.11210833271929 0  3.408766223032414 3.469500900677365 0  1.915147569444444 4.725484476461039 0  2.070301968506271 0.2605666686358055 0  2.767932250651506 1.530295992695836 0  3.280065043173439 1.364863281105779 0  4.45101570110842 2.974157152713635 0  3.521928862999512 2.96990445010402 0  2.552921961347576 4.008414007169315 0  0.2682955376854191 3.657555015841003 0  3.084522868361304 2.310593316718068 0  2.669255823227708 1.939379494498064 0  2.615884629473921 2.238841231570381 0  1.405652091971449 0.8877813821442277 0  3.25151486618811 3.68536115104276 0  1.963741569810629 2.331207252264507 0  4.017297980292599 2.486269171379106 0  3.869168920841219 4.748188103831625 0  3.596868753579134 4.77342723825056 0  2.41262958240343 2.764128584995838 0  1.266750578673391 1.404747710001619 0  1.559243962241121 2.85146506328516 0  3.128799423834764 2.052081657715259 0  0.6770833333333333 0.9778025793650794 0  0.2083333333333333 0.78125 0  1.978224492765132 3.087074731032578 0  4.051448850909273 1.969392119104174 0  1.320577095006813 4.172234780971559 0  3.214261103850064 2.534397293281829 0  0.2635729089754111 1.779234736680035 0  3.510775680035133 4.460728640112889 0  2.603081405968802 0.2432579385496493 0  2.866341315154884 0.6662105505481998 0  3.000919221100777 0.2270278495648781 0  1.298858304121393 2.05917319923859 0  2.020292299736597 1.589794568392338 0  0.7401688396476035 4.470780315741533 0  0.6721783535561408 4.733125588707921 0  3.753712482075402 2.874301339727514 0  3.557348205914658 2.491958694539413 0  1.094565978195436 0.2011034254079851 0  0.9338148378011396 0.6833568465908735 0  2.945530578578538 3.701798332963805 0  3.111707186654356 3.216904195825605 0  1.341791111822685 3.293123262233967 0  1.632939924064587 1.184895891095613 0  0.6335477978936732 3.517393619499591 0  0.5576014611130192 3.210998966942492 0  1.564344196470102 0.3630498725895039 0  2.75362450242839 4.626680495816594 0  3.571304405229554 1.192452351107437 0  3.522934592621944 0.9359134489437148 0  4.453125 3.671875 0  4.765625 3.828125 0  1.055906321410838 4.14310472322957 0  4.795146539102229 0.46875 0  4.767156345199235 0.7178596932040019 0  0.2048534608977711 4.53125 0  0.232843654800765 4.282140306795998 0  0.5393715189906129 4.270810883024032 0  4.329922600274667 0.2750645887059072 0  4.275515096738972 0.5448389557295173 0  4.477747423652795 0.7252838358993123 0  0.2002829820452772 0.46875 0  0.4352678571428572 0.6956845238095237 0  0.5007241582667088 0.2123388122114133 0  4.672890923830735 0.2500902110494848 0  0.4308009280819452 4.783624996516437 0  2.104871305393774 4.438653689007242 0  0.2274454167838428 0.2274454167838428 0  3.446466574593436 0.4359605369011901 0  2.12354112127588 1.217588426759619 0  2.309175236825235 0.7888355970690434 0  2.556178570281936 1.054299163237582 0  0.578683248637
[...]
<PointData  Scalars="f_16-3"> 
<DataArray  type="Float64"  Name="f_16-3"  format="ascii">-3.2519223548505807e-40  -4.5273051475660546e+00  -2.2042057540998180e-39  1.6292589106157403e-63  3.0813333415188936e-16  -3.6280119283866467e-45  -1.1505756104252435e-45  4.6057971010538801e-16  1.1587640995266717e-23  4.6780034239184914e-06  8.7805427358225445e-09  -2.7071132969894433e-44  1.6688400273708425e-28  -8.9552848402751793e-44  2.1004949101594384e-26  -7.4599162060709675e-53  -1.1395872349721106e-52  2.7218475972992239e-30  -8.0652235242098472e-28  7.0762252090208332e-14  -1.9888237440412768e-37  2.0968160724927337e-16  2.0093117760363675e-35  3.8870958561785984e-07  1.2834548958517016e-47  7.8595578901375904e-22  -5.0400572295645777e-23  9.4432926519770803e-37  -6.5372652719139511e-40  -7.9948709593474412e-35  1.7105677631208249e-35  -1.2977813077217574e-28  -6.0609309935329756e-10  -5.0997405232529515e-44  1.9833782117209459e-21  8.0865604187796716e-23  -4.5146800345340337e-28  5.0160969839891881e-17  -1.2172795137043005e-30  1.1754455778444239e-44  2.2668347868339286e-16  -4.6846879754963723e-39  5.4113822841216216e-04  9.7500257553293856e-01  -5.0235383595062109e-58  1.0780513349748151e-56  -7.6961738090238879e-15  6.7212530307543514e-12  -1.2829691399767595e-39  -5.8255887756391581e-21  -2.2013753528978057e-13  -1.0822761982380135e-43  -1.8062003525427371e-32  -1.2207138857590822e-45  7.9066379569054568e-12  1.4096731878137609e-23  -2.8278667532487382e-44  -1.9787389571657531e-40  -2.9091536164744906e-34  -2.2208580529277243e-48  2.4528225284225956e-48  3.2248894983514459e-11  9.0682720518607572e-32  6.0092757407724581e-41  8.0865529679772481e-29  4.1952818369441602e-29  -1.4562866376028661e-22  4.5874633485634804e-36  1.1366985470425305e-37  1.0221226360137737e-35  -1.2498437152549505e-24  4.9253129875281159e-25  -1.0233761555239490e-26  1.3220539246442032e-02  -2.8995133678455585e-08  2.4462409994059143e-09  -2.3015589694763901e-51  -5.2023653705589229e-54  -8.2955355817747917e-48  -8.6332262885118159e-24  -1.9395040185312745e-03  7.9497234961381979e-18  2.0011630486060614e-34  4.6244593881327263e-28  -2.5589474164889979e-32  8.2053282778595314e-40  -1.4726779504463753e-36  2.1036312951375557e-33  -1.7127952903551726e-34  -2.7010031000054288e-37  3.1142502425510568e-33  -1.1642221197555021e-41  1.1288071550810841e-43  -1.5739597558178193e-42  7.6228292500296369e-42  8.9137910083798903e-28  -1.8382081218283643e-20  -2.1886029645786320e-43  -1.5936868928822532e-36  2.5868480106800164e-41  -1.1295446853531505e-34  -2.2839992810714496e-38  2.4203603443159629e-31  -2.3103400255533743e-28  2.5180549655802456e-27  -2.5841096872798030e-06  9.6940989749004847e-10  1.5255335306209313e-13  -4.6773347401012560e-41  -1.2716962561484520e-51  -4.4295415712643999e-25  -5.8870248773726627e-14  4.6397578831252170e-12  -9.7786994486646494e-19  -8.7056657832416863e-16  -1.9403747307956094e-17  8.3956159007284449e-21  1.2829338437966910e-36  -1.2560495103384255e-43  -1.6137998108066615e-31  -3.9335353421614866e-19  4.5639431141432221e-40  5.3167305028221215e-53  -3.8767899802317675e-21  3.3530596544848796e-21  -3.8834956976680845e-60  -6.0316870587927300e-11  -1.8252065590324059e-47  -1.5602002621415351e-44  -5.6295874440304876e-24  6.8684876756146871e-12  4.0754517798877654e-35  9.4150934282192376e-24  -1.4526349804488638e-25  4.9268585189997789e-27  1.8055642980828017e-31  1.2161191383499772e-31  -5.3454861271787882e-07  8.6924860357168987e-28  2.3621130752329429e-14  9.4468457310912493e-14  2.0683143271434868e-19  3.1240532778088834e-15  -5.3668339660578053e-17  -7.6316710966718664e-49  -2.7991005970478773e-45  -3.3622199980114849e-60  3.0500485144484671e-48  1.4022441450263624e-31  7.3142467874184164e-39  6.4138439134905511e-23  -2.1973136149144152e-04  1.6584645202236010e-11  1.7587739900269408e-51  1.6295027095697066e-16  6.1499595575081282e-24  -1.2768871336011648e-36  4.2543488431194986e-30  -2.2344173743472758e-24  4.1270064618207316e-31  -2.1277199733251973e-53  -2.0887684866637784e-38  9.2621969092684487e-43  5.7825592252867033e-35  -1.2332630131591783e-39  -4.4490434935588480e-41  -1.3534314032439999e-37  -4.4087778774531859e-17  1.2874476730641688e-14  5.7324850373911315e-18  -2.1820109401200773e-08  1.1653840426949188e-10  7.1303630206471114e-39  -2.7753726758198660e-01  -7.7910812889477228e+01  -6.7572292179406375e-47  -1.5622259809177924e-11  7.4360721600745771e-15  2.7682170821784017e-16  -4.9899587858033438e-19  -5.7734699792999785e-35  3.2486621274106536e-29  5.3425541949235999e-43  -1.0446630833416460e-42  -4.6789509739959686e-43  3.0808310108415077e-43  2.4967090201214599e-46  4.9868431543503305e-45  1.0019904722520587e-46  2.3712728721161103e-45  1.8267048931540833e-29  1.1274699876737075e-41  -1.8212879673086586e-18  9.7914040144131415e-06  -2.3372485443953440e-03  8.4229112579144234e-20  1.9133182680696984e-24  6.1371803435066621e-31  1.9757786678751763e-50  1.9563350603812595e-55  1.5442881734476216e-40  6.0606569770217086e-24  1.4699947831191311e-56  6.2730460427409420e-33  -2.7032858425843964e-25  -3.4438395938265762e-28  1.2365462410144309e-32  -9.6604863319995376e-36  1.8445731549257620e-04  -5.3859601635874984e-05  -2.8426629928660523e-38  -7.7696890409121079e-40  -2.7309186699464828e-29  -4.8262276895780575e-38  5.6294304915658768e-40  -5.9605602715274296e-08  -6.6036283239114045e-35  -1.2145816710572008e-27  -1.6977726105036865e-24  -4.4414112050412841e-49  -1.9091098258923973e-29  -3.4559441343389237e-41  1.6153409438588846e-33  3.0434334927600612e-38  -8.4589962870991171e-38  -1.4853415890342145e-42  9.7995652974456207e-42  -3.8538952041239174e-21  -1.1184866305923986e-12  4.1608441400653274e-32  -8.3767869989074109e-21  2.7517453013604790e-51  -6.7631277857424342e-55  -8.0496766660126687e-31  2.8823254810853135e-37  -5.9408323002069888e-42  2.5343244484068347e-14  2.6608753696488959e-21  -4.2968137843585033e-27  -1.6405544068801082e-42  1.6840845805894226e-34  -6.5055720852753742e-36  -5.6989613958976816e-29  1.1423157364480731e-27  8.4791463371657459e-22  3.9052480362146767e-23  1.7346028616793720e-09  9.0599816843669526e-37  -1.4825285591092554e-19  4.8716617045159375e-35  2.5505450041033582e-50  -7.8803437463570929e-50  1.0082317450606100e-24  -6.9281910231679043e-10  1.2863968220368777e-22  -2.9544026362059745e-26  -7.2477688438768833e-05  2.2657381956158962e-02  5.6779519572639630e-25  -2.8090272513333564e-36  9.7629105463857025e-37  1.0825738658634548e-29  1.9032420165657051e-10  -4.1247054588310800e-47  9.3642272299234364e-19  -6.7099810951468156e-23  1.6951063758923610e-22  8.3969308775744937e-15  -2.3816967581861092e-15  3.4350924358214908e-38  -3.2474845512978560e-40  -2.4242297888594592e-36  2.2601530856352640e-31  3.1661896806483720e-07  -1.0373991196839870e-07  2.3729520527086252e-35  1.5235828164842487e-33  2.8537191558354173e-26  1.7823475194033061e-11  -2.7810970853943999e-29  1.4437277268267803e-24  -2.5248379983203037e-11  -1.3096602989652089e-42  2.0635999352841194e-30  -8.7067059506568765e-30  2.2150365635299935e-48  5.8189731911352587e-52  -3.2670315684149968e-36  -6.9249635410261854e-40  4.5754896852361981e-39  1.7001914120785230e-36  -6.1300443070825708e-34  9.9504405881047675e-36  3.8215444742718892e-34  -4.9777725670352862e-34  -2.9610486344678200e-35  -1.0692602641183766e+01  8.9852569846479158e-03  1.1937717312357156e-01  1.5581806066976857e-35  3.3431907539205507e-40  2.1742477095415458e-40  -2.4209253882356986e+01  -1.5589336896375794e-26  -2.1877599275377696e-16  2.6752198527383140e-18  -1.6724083842552867e-21  -1.6415965583836862e-34  4.4195847812966546e-34  4.2423344597240257e-17  -1.0142823358787830e-30  7.9971332357492174e-29  1.2259682043789041e-41  -5.8699224882435736e-45  -6.7282398939153692e-57  -1.7511231073027245e-08  -1.1156371244262506e-30  8.0398304829768222e-31  5.3847738487352551e-25  -6.9427353865505529e-44  -6.1868319368553154e-32  9.8864276686603436e-31  -1.6491105059340642e-11  -1.9279808704148616e-26  6.1740051628185446e-30  4.5348550186096199e-38  -1.3466933589949291e-12  -2.8373917017579719e-41  -9.6191740740243770e-38  1.6845240478925916e-14  -2.2193915392893828e-44  -6.4335358214432214e-09  7.6849368921674188e-19  5.3753739437791044e-44  3.4754504971860528e-45  -1.6720802144298089e-33  2.5043206650442658e-44  1.8033523966307782e-20  1.2185893162701180e-18  5.3039669964754249e-46  -4.0702813024253043e-41  -5.7799515365102015e-16  -6.7739493867350081e-25  -1.8420862420030649e-28  -2.8249732174395125e-46  1.1883866273416644e-25  1.6119691729825640e-48  -3.0997708675450681e-41  2.2319768538450876e-25  -2.6598967660767464e-43  -3.7027443667844794e-21  3.1085921048070909e-08  9.6383367692113470e-06  3.6235928932141343e-04  -2.6470305520002478e-28  -9.8018366298821311e-25  -1.4189791702615985e-16  -3.2839548378191449e-46  -3.6618228075185696e-44  1.1211723538005835e-44  -7.0588056915044432e-40  5.7130244625575811e-60  1.5763665173479091e-38  3.3855696731492240e-40  8.2929903829252891e-23  1.6943942611511993e-54  -9.7442323601442122e-25  4.0776620679185083e-43  1.6805545018570337e-35  -2.5849704407853359e-31  1.1357559270849907e-26  -5.1076723177383959e-21  -1.9725890808498098e-05  -1.2211851436948499e-51  -3.1275545301062794e-33  -1.1276159413131139e-19  1.1455766979158960e-18  8.7772350039168103e-46  -1.3453867553756922e-13  -4.6221942104384948e-13  9.0090144327941799e-13  -5.8076487249018381e-16  -6.6610389551207703e-34  3.0678023282415187e-21  -1.9200127310524553e-30  3.7615871955222643e-27  -9.0297093527155456e-34  -1.4236862728884207e-36  2.9986571947045050e-42  -4.3192645986390304e-25  7.7462687854397387e-20  -6.1938730432386074e-09  2.6098194989196693e-37  -7.3548134195360159e-11  -3.9109953577426713e-15  1.5927326868053500e-48  -2.0574894214442348e-28  -9.1057233799752886e-26  2.1019511048865036e-46  -2.6317253452481689e-22  -3.4308093864481097e-04  -3.0446748743255871e-13  4.2554855352030104e-35  -7.9619699874613214e-39  -2.7477892042173518e-28  -8.5076289702774540e-39  -1.9405144949134633e-46  1.2060187938997148e-23  6.7035959958132665e-12  6.3618771404749721e-37  -7.8113550659493676e-20  -6.4846524989539015e-20  6.2205184954388459e-18  4.3205285550357570e-37  8.5175142865444298e-28  6.7445160673708403e-23  -5.8012551897876511e-33  3.3464455989716955e-08  4.3278735213605752e-15  3.7439959388272738e-44  -2.2871516664572720e-22  -1.1574107516722681e-36  1.4538971000370793e-41  1.1166298925931589e-44  -1.3557140159452427e-21  -1.6310377302118753e-17  -3.5794849538352795e-30  -3.2562125599055730e-37  2.3603064141225728e-43  1.0878139711957300e-45  -1.3617018795151182e-10  4.4977963414318733e-25  1.6610313749412250e-41  1.8862928974806768e-39  1.7525914115900917e-31  -1.9423842662414547e-19  1.1449620547731062e-32  -8.1973158103987119e-20  2.1138485373916004e-40  -1.2741418659315473e-10  -2.2011520230590643e-40  -3.9190533632727447e-27  -2.9843981290138926e-18  -5.6375671030772196e-30  1.0469656621597514e-57  -1.0522834007996632e-14  2.1722910811816564e-35  1.1808946724445769e-23  -6.4221525477088103e-15  -7.5045678268852995e-34  3.8446365530262726e-29  1.9926854479771132e-13  3.4892408790358721e-42  -1.8260441249707077e-53  3.2962170675939247e-41  -6.1231071152838064e-46  5.0729087017269010e-15  -1.8386347589487817e-08  7.4327011906853324e-24  9.4051915068986316e-10  -2.6430596297352792e-34  1.1895282967118367e-24  -1.1985255668264551e-16  2.9930487146406909e-31  1.8766722829506192e-31  1.4150419672566847e-19  2.7624569467940750e-39  7.9660346970505514e-12  2.3822577165400068e-25  1.3791182484784522e-05  3.6368239927314644e-29  -3.0679805036788559e-10  -6.5560338983016475e-13  2.4826939865145961e-17  -1.3868973379389036e-21  -4.3554333656621092e-21  -2.5714529214619571e-32  -2.4685382670312173e-34  1.8272862147808201e-30  -1.9467053643593172e-06  5.3760290623519730e-43  -3.6083643776840459e-49  -7.3086825563628218e-53  -1.5961330485904384e-39  5.6577707773628963e-18  -1.0581851104737168e-51  1.4879180096147009e-10  1.8951166502069558e-15  5.9011936743965956e-18  9.1654914746404007e-37  -7.0687821720281580e-23  2.1577252880474547e-23  -7.7199969538905594e-43  1.6020828805457182e-25  -1.2921352100223923e-45  -1.2460815676947873e-43  9.1119213211403154e-34  5.1649864497844801e-45  -5.6293089728136927e-31  3.0893549446623942e-50  -1.2291166158316713e-34  -5.8419342480111642e-27  3.2440978710429389e-22  -2.2144278840631374e-05  2.1174481300393162e-41  6.8815789805886368e-40  -3.0209668227714047e-42  -2.3089833726968917e-13  -9.1045822684722283e-30  4.9455011905486130e-29  4.7359015314284712e-31  -2.4160498391163611e-52  9.7849348130459057e-15  -6.1105945633754483e-38  3.6035215753492674e-14  9.6730053773514246e-14  -1.0895593937399919e-34  2.7539246003942864e-26  6.7713516055418973e-34  1.3065898738304802e-43  4.4264543430284166e-42  2.9061249312150890e-15  -1.5564862950932374e-12  6.1777222919299985e-25  -8.5430383688082321e-42  7.7021813086071419e-38  -2.2023938381880487e-29  1.9002552143798721e-29  -1.7718940291031638e-31  3.2927139949495015e-39  1.9686972341658438e-31  3.7462071963441221e-46  5.5874627708785506e-37  1.4644597527776990e-18  5.3541698856734100e-45  4.5482825051733483e-38  -2.5616837969702732e-36  -2.6263564848981553e-34  2.4694542093603465e-51  1.6449984217391813e-49  -1.2002175715926897e-48  -3.1710847608374800e-41  7.9949877316779456e-38  1.1831225233264258e-36  7.8304236101542579e-14  -1.5106592628284177e-15  1.1466948004711720e-28  -1.8428339207828981e-47  -2.8755180391724666e-50  -3.0242262051479223e-30  5.1927291648219451e-55  2.3145839906058460e-54  6.3119971979635993e-22  1.8868198021972657e-24  5.4017472855783591e-38  2.1756379489776371e-35  3.3212744621659186e-29  1.1416539426547312e-12  -6.1673237785141880e-41  -4.9185620436520149e-40  2.6663605743126987e-35  2.0154794611310159e-03  2.9081512649018848e-04  -8.4340299636903264e-06  1.5328617033345772e-31  -1.3760838562708607e-37  -7.2650652651437313e-36  1.2763431609133678e-10  4.6445287479857026e-44  6.3580839438594205e-38  1.4249113224586982e-22  -1.6334419237704985e-27  -2.2573117354314166e-39  5.7482154991092747e-59  7.2339356102189701e-31  -3.3075058602505653e-49  -1.1519267706926857e-54  1.1060781524444844e-08  -4.6358901088117769e-22  2.6863705138604085e-31  2.4481647904717419e-40  -1.1830022986629846e-44  6.4942643884645829e-28  -1.9156018236772407e-38  -2.0513034703250978e-08  -5.5934587885400407e-26  3.7273849922327998e-54  9.8112438235420473e-26  -3.3067433015493884e-12  -1.3307085274539813e-20  1.2663054984625993e-36  -1.6966183289388171e-17  -1.1133670288114548e-21  -1.7697518808316397e-16  -1.0864666554635594e-41  1.0518979854568677e-32  5.2111537172221470e-04  -5.6455998035408875e-19  -2.9971414236566598e-09  -1.3684635070393678e-08  -3.5957811170523590e-10  -2.7270930757953437e-07  -5.0010680224371434e-07  2.0307795209926945e-43  -2.0439674442399295e-45  -1.8674127092507670e-26  1.2452592601956332e-23  2.5513087177955806e-23  -1.3812450379827136e-19  -1.2783891961197238e-01  4.8860923836070956e-39  2.5436696076004827e-41  -1.7018478034201304e-14  -1.9793858188779798e-49  -5.9083300273200840e-39  8.7370433790482800e-52  -7.9218560040824954e-36  5.0997761922991930e-50  -9.8675730296011254e-17  1.6016664828520246e-44  -2.2964470064151186e-24  -9.2365649601323503e-42  1.2645935672969195e-41  -3.4817845467367867e+00  -3.2433883291102979e+03  -3.4039924254425879e-48  -2.9967163076407557e-17  -5.1890497486272893e-56  -3.0399283112576763e-02  3.3458611947870511e-34  1.9153362240445063e-40  1.2857099826453243e-10  -2.4321123968519046e-11  2.2334804826948406e-29  1.7792063551485748e-40  7.5816223878917578e-26  2.5369250012471817e-15  7.2289595806430404e-53  3.5577346879464710e-03  -2.7476235589951538e-33  1.1371204268584633e-32  1.4587842205282231e-15  1.0298225323322187e-38  2.3060212206536234e-05  8.1415799309588249e-27  2.1182536946013300e-36  3.4702045620406549e-33  3.8411872722363388e-31  -5.7174668430872374e-48  8.3306572003629384e-25  -1.9145962946710348e-32  1.8185112781654074e-19  -4.5940234414402904e-34  3.3105915820003138e-38  6.1485877102153284e-42  1.9356588135665186e-44  -5.1711826177806528e-34  1.4041679855827069e-16  -1.9250259179848859e-46  -4.6435953579744151e-46  1.0435484039174559e-15  -7.5054991898506245e-58  -9.6349853764210461e-43  2.9381288370700192e-56  1.3876883477269997e-38  -8.3796407407760904e-41  8.1521127128507277e-46  2.7963000139224648e-24  -3.5797895319349189e-44  -4.7458740250668321e-50  4.8587409694582214e-25  1.3377919941770300e-22  -2.2918161266282251e-45  7.4310163937962745e-45  -1.1505062734300091e-47  2.2263853883774467e-14  7.6414641816700163e-14  -3.7171024955376407e-18  -2.2307075429326282e-47  2.6101030994877962e-08  9.4176262653055567e-13  -1.9754106120849676e-27  -4.6897644124875497e-29  5.7189139022977046e-42  1.1223475094476383e-02  1.5522054267764147e-36  1.3920208224037980e-41  1.9147558014311255e-08  2.6337926263706822e-20  -2.6005422835170819e+01  -4.6519066893173838e-02  2.6791960567194557e-53  3.2875921510962634e-59  -8.5475662496541115e-62  -1.3458345192950648e-60  3.2754797756826461e-21  -6.5803293597545065e-47  -2.6494979111396503e-05  3.0727643742495523e-52  2.2085124729128800e-57  -1.3862856432782087e-42  -5.1086843881702276e-32  -3.1573474573333032e-40  1.2316370308335778e-26  -6.1756998930970603e-42  9.3183442550561726e-24  8.6932254259525948e-44  1.0777480026451446e-08  -4.4319914108010103e-08  5.2988123733780915e-07  -8.6893307186226602e-47  1.6959250255589168e-05  -2.6437672539706387e-14  -1.8502345003489133e-06  -3.1544809870869673e-35  -2.8013499172875591e-19  -4.0250507402307689e-17  -2.4332866137701198e-36  6.8721710276562883e-22  2.0214300289277833e-23  1.8789826020759401e-26  3.5048741207019252e-19  -1.9592117359816588e-06  -7.8055972027023138e-04  1.7659992798192442e-40  -2.1408847714794644e-36  8.5710634159797894e-33  2.3381006660699862e-39  2.8659124508168437e-11  -3.7827739683511260e-45  -8.1870568533011553e-23  -1.9414936651930989e-35  7.8865994768011293e-20  -5.0685530499952176e-13  -4.2362165654852130e-29  3.9202344582156380e-32  8.7851034500078336e-24  8.7610078733473348e-16  -1.2914865127720188e-17  -8.8432087571364063e-32  8.1101702272788149e-43  -2.3826119609272425e-13  1.2701850257771556e-39  -1.8233998262703142e-39  3.1945888151027264e-24  -4.9623625402779437e-28  -9.3240498963280628e-12  -3.9062409457664709e-32  -1.6607580712163071e-09  9.1157873661234893e-45  9.7300835869390226e-26  1.7673610286102331e-27  -4.7033829924502812e-43  3.1012824255981812e-36  1.3083982108026821e-35  -5.2762056379935326e-39  -3.0956123174726722e-37  4.3912576895715688e-36  -1.0520610442428039e-19  -8.3454113631802671e-36  -6.7213518331445746e-29  -1.6502164630479849e-22  7.8294871820941504e-31  -2.1144644304421376e-31  6.4202777808035830e-45  3.6785296168987455e-25  6.7202276163842424e-31  -8.7633910989129789e-32  5.1640748511806525e-35  -3.7693314984513035e-35  -1.1343829572501391e-23  -5.0157586373361054e-25  2.8600101407986412e-28  -3.0681100262802313e-19  8.6340675002342862e-35  -7.3518166829957402e-41  -2.8101518553264035e-42  -4.4350752052348099e-39  4.7635678831263866e-36  -9.4612224867746466e-39  1.0688888466448147e-45  9.4184241655607894e-32  -1.7966756629640721e-24  9.5057265803450362e-44  1.4583492494446222e-45  -5.5108384192353368e-40  -8.5516814324852637e-29  8.1123478244493861e-22  -1.2650988882041428e-15  6.7271914262011014e-32  8.8528010545755502e-31  1.0614581494524787e-12  5.4068823878107354e-21  2.7868809090290948e-48  -1.4049587555111263e-09  -6.4621281779034048e-29  -7.0854015269390702e-48  1.0841214986113664e-47  3.7149198562765782e-55  3.8527038863334922e-37  -4.0824567798912975e-42  7.7942310299301139e-21  -5.2174995583919008e-31  1.6180078536917974e-26  8.4797268213162328e-19  2.9046099922616457e-39  -3.1449214379749764e-42  4.7429621450917775e-29  1.1885514523834961e-36  -4.5276140775338797e-19  2.2471324588054943e-28  -1.2749670741830372e-21  -5.7179318440562629e-20  -1.24