<?xml version="1.0"?>
<VTKFile type="UnstructuredGrid"  version="0.1"  >
<UnstructuredGrid>
<Piece  NumberOfPoints="6454" NumberOfCells="12638">
<Points>
<DataArray  type="Float64"  NumberOfComponents="3"  format="ascii">0 1.5 0  0 0 0  1.5 0 0  1.5 1.5 0  0.75 0 0  1.5 0.75 0  0.75 1.5 0  0 0.75 0  0.75 0.75 0  0 0.375 0  0.375 0 0  0.375 1.5 0  0 1.125 0  1.5 0.375 0  1.125 0 0  1.5 1.125 0  1.125 1.5 0  1.0625 0.4375 0  0.4375 1.0625 0  0.5625 0.375 0  1.125 0.9375 0  0.3854166666666667 0.6979166666666666 0  0.8049568965517241 1.130387931034483 0  0.28125 0.28125 0  1.21875 1.21875 0  0.2175662878787879 0.9079071969696969 0  0.5625 1.303571428571429 0  0.8290441176470589 0.2738970588235294 0  1.303571428571429 0.5625 0  1.2578125 0.2421875 0  0.2421875 1.2578125 0  1.010416666666667 0.6979166666666666 0  0.2051282051282051 0.5216346153846153 0  0.9856455736880344 1.297298524562678 0  0.7653719096334186 0.5079390451832908 0  0.5481770833333334 0.8606770833333333 0  1.039462506743128 0.2044177382376396 0  0.5828641541157527 0.6178675878563986 0  0.9136904761904763 0.8913690476190476 0  1.3125 1.03125 0  0.6409183354192741 0.1798341677096371 0  1.281668526785714 0.7820870535714286 0  0.1875 0 0  0 0.1875 0  1.5 1.3125 0  1.3125 1.5 0  0.1920012972225798 0.7153938510340165 0  0.4043073677566794 0.4982626425332328 0  1.054735085357395 1.117171638214202 0  0.9375 0 0  0.5625 0 0  0.1875 1.5 0  1.3125 0 0  1.5 0.5625 0  0 0.5625 0  0 0.9375 0  0.5625 1.5 0  1.5 0.1875 0  0 1.3125 0  0.9375 1.5 0  1.5 0.9375 0  0.4468932545895913 0.1802144181965304 0  0.7987562970593343 1.318357727289711 0  0.6320399113235965 1.037924776639822 0  0.2603996068459564 1.080712106845956 0  0.3802379261363636 0.8658558238636362 0  0.3950892857142857 1.331473214285714 0  1.229910714285714 0.4095982142857143 0  1.13745405880473 0.5879074784276126 0  0.7482946595664349 0.917427298948138 0  0.8625423372573767 0.63562835295355 0  0.9012540315035069 0.4192242537897745 0  0.6862861647268528 1.220560482834343 0  0.1224516396650128 1.023194379059598 0  0.125 0.28125 0  0.3042571223994863 0.1326690407998288 0  0.4149781713917952 0.3488154858246145 0  1.359375 1.171875 0  1.3359375 1.3359375 0  1.131854448751258 1.346034816250419 0  0.84375 0.1212988551125148 0  0.1361607142857143 0.1361607142857143 0  0.691638521804216 0.3135510227244841 0  1.131379139752747 0.7872570780892659 0  0.9688853304056201 0.5429870982608649 0  1.134057265332395 0.3075921335077801 0  0.1060987903225806 1.21875 0  0.1387129645862553 1.361715427487219 0  1.393901209677419 0.28125 0  1.361287035413745 0.1382845725127811 0  1.21875 0.1060987903225807 0  0.3601433665263453 1.180455866526345 0  0.5483798738512705 1.157949853770241 0  1.36815753200686 0.4172967302747542 0  1.187531723571597 1.085953361785798 0  1.401785714285714 0.65625 0  0.65625 1.401785714285714 0  0.09804407994526333 0.84375 0  1.402254384056937 0.84375 0  0.28125 1.403363735808893 0  0.925464184745229 1.040966878346683 0  0.9340282126721275 1.174186719212852 0  0.8797957988728348 0.7651628218565172 0  0.9934051945542568 0.3266495984636094 0  0.203125 0.3887553418803418 0  0.3141644363520071 0.590454276924375 0  0 0.46875 0  1.254999444628736 0.9118761107425289 0  1.03125 1.5 0  0.3213923331757561 0.9738827583030052 0  0 0.65625 0  0.1159730568910257 0.609375 0  0.5141588149450601 0.7319349350549398 0  0.5326188770927806 0.499793044891493 0  0.6693710930845284 0.4331752184013763 0  0.7121702197229691 0.6260790780451906 0  1.234475471272342 0.6664938523856012 0  1.098390770327214 1.229886041743451 0  1.013464781580893 0.8203484622190179 0  0.2952629260823795 0.7791860223918741 0  0.4928385416666666 1.401785714285714 0  1.21875 1.5 0  0.6298376402880013 0.7702339567996885 0  0.7848608254810038 0.3893687681820236 0  1.5 1.40625 0  0.4622923140598757 1.236370233688302 0  0.4667991207677928 0.9473088592382519 0  0.2981266305022628 0.4537778927841646 0  0.84375 1.5 0  0.9008085981204581 1.384216576384643 0  0.9616882272291621 0.1155730914816442 0  0.5035849743784865 0.2782669836795798 0  1.009598009491631 0.9590831193486247 0  1.105310675430652 0.1118663280349183 0  0.9288474621627256 0.2227857609567891 0  0.7464170347051563 1.031945227193052 0  0.1125198733612451 0.4565759846003609 0  0.841690222029119 0.9722978654718903 0  0.4672907609250232 0.5973206048957169 0  0.5437787095683263 0.1151781905475824 0  0.7536044163845748 0.1896192335637668 0  0.65625 0 0  0.7049920363331066 0.09569941760663599 0  1.40625 1.078125 0  1.39081588470667 0.9535067694133395 0  1.40625 1.5 0  0.6375104178177308 0.9268732242701165 0  1.003645772935292 1.399729634730415 0  0.1610182417168329 1.124880958145783 0  1.304862449892061 0.3348605478786471 0  0.8685031591756179 0.5174815394805063 0  0.203125 0.2142857142857143 0  0.46875 0 0  1.236252628961601 1.388617949258287 0  0.6528472422531054 0.5380411271234069 0  0.8059365139027533 0.8342920789922936 0  1.210984939277725 0.5129097255512943 0  1.166392387042105 0.1947779113806861 0  1.03125 0 0  1.112027098777656 0.6868999874317245 0  1.4091796875 1.2626953125 0  0.7056210334910562 1.122831931927321 0  0.8445532731910484 1.225781273471752 0  1.401785714285714 0.5192199888552865 0  0.5315992325579575 1.02511262900491 0  1.40625 0 0  1.5 0.09375 0  0.09375 1.5 0  0 1.40625 0  0.09828267889765753 0.7453580504435201 0  0.2137299928547555 0.6195416563936835 0  0.191293077366709 0.8134420362003882 0  0.395652989337951 0.09620832696794322 0  0.3786395303236629 0.2546156254865724 0  1.105082759698279 1.033286095599126 0  0.09375 0 0  0 0.09375 0  1.269539180892899 1.136742542678697 0  0.4693126788152344 0.427799606155492 0  0.6022922682526717 0.2709632077670539 0  0.286537769267488 0.682999829576168 0  0.431696207163009 0.7833932160815852 0  0.6864071374811688 0.8459705255349474 0  0.7528727250742914 1.403406392299215 0  1.40615841291152 0.7499896558614008 0  0.46875 1.5 0  0.28125 1.5 0  1.5 0.84375 0  0.65625 1.5 0  1.5 0.46875 0  1.5 0.65625 0  1.21875 0 0  1.5 0.28125 0  0.84375 0 0  0.28125 0 0  0 0.28125 0  0 0.84375 0  0 1.03125 0  0 1.21875 0  1.5 1.03125 0  1.5 1.21875 0  1.203254432787244 0.991934092179911 0  0.7018429057870754 1.316240552056942 0  0.09232383443139219 0.9359101690420062 0  1.40390625 1.40390625 0  0.2348931380369949 0.995323396873026 0  0.3477301897825538 1.059746137541629 0  0.2397198755521273 1.168072125048833 0  0.21928098141281 0.08974206793316726 0  0.09164332482786468 0.3669827664371529 0  0.4604861261832766 1.147925083553434 0  1.208242546284113 0.8346339808272811 0  1.042270885119771 0.6063462845058686 0  1.320424270852333 0.6988339884515781 0  1.018211345242011 1.19612913087091 0  0.3232572989405801 0.3642302377411452 0  1.219683471513571 0.319825657354259 0  0.9022918689243919 0.3281052118114913 0  1.209245485719643 1.305564994554257 0  1.051234566759267 0.5217852582666107 0  0.3673510104646698 1.413627432420576 0  1.295769937043816 0.4720643981603306 0  0.3072023010063974 1.318381411439101 0  1.141690261405714 0.3964585327199988 0  1.132920129606929 1.151700997493917 0  0.4797323103182937 1.318677829548113 0  0.8975459458359925 1.296170152543854 0  0.464209749529605 0.8633392490855897 0  0.2934839260221656 0.8659218053661386 0  0.5291505402246311 0.1980703646347806 0  1.129554686622487 0.4893579115624633 0  0.6803878781969045 0.7035160631177291 0  1.32373046875 1.25048828125 0  1.32216796875 1.41767578125 0  0.5499851861317793 0.9439128053349233 0  1.022629866909724 1.040850270203209 0  0.5745442708333333 1.417645342938312 0  0.6210905905518814 0.07817000059074161 0  0.8251326424747147 1.051763251304391 0  0.9840195129520318 0.4094589843317338 0  1.335304710332526 0.8922471458140904 0  1.056578658899854 0.8909713350312058 0  0.6311277392046407 1.158870891931624 0  0.08048866130562571 1.097266504752301 0  0.7899471681381695 0.5900550615276262 0  0.787583911300231 0.6744258112570235 0  0.9253568605083915 0.6931779950154204 0  0.6069241236579608 1.236016193461046 0  0.9754544598564333 1.105608345312828 0  0.5891224709431884 0.6993621756793521 0  1.20518939408778 0.7458807514137317 0  0.7661039078070937 1.202429845202379 0  1.160750676252366 1.424456431149488 0  1.07906062607374 1.432028171475168 0  0.3800251736020173 0.4214243130004857 0  0.9386398271504294 0.6156244973145778 0  0.0625 0.234375 0  0.203125 0.2933407738095238 0  1.215434655272782 0.5908176357312523 0  0.3862873976850203 1.253958025454808 0  0.9642783311550196 0.7603191879845486 0  0.07907187269262334 0.5337704210040105 0  1.05323270401054 1.338218592033867 0  0.7809244217906405 0.07297738156489482 0  0.8538188665025647 0.1992768958275427 0  0.9002757663302332 0.06810835486946346 0  0.3896574912364178 0.6177519597715768 0  0.8312147565658268 0.4504658003252042 0  0.6060876899209792 0.4769383705177015 0  0.6973120163099531 0.973865749266754 0  0.2220506518942812 1.34123409472246 0  0.2016535060668421 1.419937676612376 0  1.067204461774397 0.7475876083618238 0  1.126113744622621 0.8622904019182541 0  0.3283697934586307 0.06033102762239553 0  0.3141768357227177 0.2102768223058998 0  0.8836591735735614 1.110539499889141 0  0.9335121559963067 0.9650712587476813 0  0.489881977219376 0.3554687673286838 0  0.1635028372004782 0.9601830799237989 0  0.190064339368102 1.055218085849877 0  0.4693032589410306 0.1089149617768512 0  0.826087350728517 1.388004148744978 0  1.071391321568866 0.357735705332231 0  1.056880377786583 0.2807740346831144 0  1.3359375 1.1015625 0  1.4296875 1.1484375 0  0.3906148988360577 0.9415494491776595 0  0.06145603826933142 1.359375 0  0.06985309644022948 1.2846420920388 0  1.438543961730669 0.140625 0  1.43014690355977 0.2153579079612006 0  0.161811455697184 1.281243264907209 0  1.2989767800824 0.08251937661177217 0  1.282654529021692 0.1634516867188552 0  1.343324227095839 0.2175851507697937 0  0.5747241214300347 1.087143402580354 0  0.1502172474800126 0.06370164366342397 0  0.07677312842259779 0.08704698619211086 0  0.06709364565267519 0.1592134266688963 0  0.1305803571428571 0
[...]
<PointData  Scalars="f_16-3"> 
<DataArray  type="Float64"  Name="f_16-3"  format="ascii">8.5612191304049478e-06  -4.4627026310732765e-14  -1.7887035939586347e-14  2.8093804958150340e-04  -2.9880150006309681e-14  3.1702309775371702e-12  5.2551187367864048e-05  8.5597110019376561e-06  1.2054072211746224e-04  5.3876500668281831e-06  -3.8001963721258513e-14  8.5629668707688564e-06  8.5612191471047055e-06  -1.8244711387588060e-14  -2.3983341661377853e-14  1.6761564743756032e-06  8.8583329508254438e-04  7.6740907647209506e-16  1.1947279003304405e-04  5.6773410723510468e-09  1.3501623014621004e-05  1.7170549355578536e-03  1.1064170951000502e-03  -5.4784602376254564e-09  2.5260149824056358e-04  1.3839665118000683e-05  3.5678452281635483e-05  -3.2783193686115199e-14  2.3728096012154178e-13  -2.1819852140355944e-14  8.5628345270411048e-06  2.6930356029101342e-07  2.5052411848629792e-03  1.0049799654593128e-03  2.7848233443104531e-08  1.3444344907993181e-03  -2.5330984823825316e-14  1.2960439957320687e-04  1.1847282058692744e-04  5.5470534377841299e-06  -3.3838330039009325e-14  5.5006722824765738e-09  -4.1459462574481425e-14  3.7169791113452210e-11  4.1523259991350025e-05  6.9633300848925329e-04  1.5606270354564223e-04  1.8244493159292891e-04  3.9655878839472091e-04  -2.6761199826956999e-14  -3.5145043114034056e-14  8.5612191204770661e-06  -2.1087531777894348e-14  -1.7321051315486124e-14  8.6167337507291453e-06  8.5612114834988343e-06  1.0288523128421001e-05  -1.8159737258090570e-14  8.5612191281411269e-06  3.6959966986364244e-04  1.7370405951325589e-08  -2.2334406757400952e-14  4.3984852840464416e-04  8.9926961964496171e-04  8.7579185382476900e-06  4.9952654482356726e-04  8.7688362747723720e-06  -2.2316696492603376e-14  3.4901875062018939e-11  8.2754927824302878e-04  8.8508836789191897e-07  4.6437479032501775e-12  3.8140636118513718e-04  8.5626142465129202e-06  2.7867746559305212e-08  -3.9732469500694083e-14  1.0666441706042201e-07  2.7856224813604760e-05  2.4793168033856994e-04  8.3444178405881549e-04  -2.8736116509059696e-14  -2.5659160155557083e-13  1.9730596551279849e-12  4.3158515551020698e-07  3.3947356345299956e-10  -2.4029111541330769e-14  8.5612197095654230e-06  8.5612196214894582e-06  -1.9672349270721976e-14  -2.0330774242479188e-14  -2.2472506434347929e-14  1.0541858304995370e-05  1.4653171840585614e-04  -2.0220613940066388e-14  6.2207344071730806e-05  1.5639182544439324e-12  4.2601901606530396e-05  8.5904460442256510e-06  5.0508224185737092e-09  8.5615106743926384e-06  5.6866033520733121e-04  9.5688930162318969e-04  2.0547656144790700e-05  -2.7161114575799599e-14  4.8576257510900094e-04  1.9293077582831092e-03  1.1403551093659511e-05  1.1153500796095419e-06  6.9945461165325990e-04  4.8248892808820177e-05  8.6135749129920455e-06  9.8827588925220718e-05  1.1717717661006608e-03  1.3220143577035415e-05  1.3222328201136713e-08  1.1494986784885802e-05  6.7124981668318983e-11  6.0713672877802380e-04  7.5818366459092338e-06  4.6453441690734134e-04  9.7624559816200099e-06  8.7529541125287139e-04  6.2700904079498001e-04  3.1056630473064050e-11  1.3947152605963225e-04  1.9686568548186823e-05  5.6930288468023320e-04  4.8164597727700818e-04  1.4995506748627312e-04  6.1119932208169908e-04  -2.6637024026306602e-14  -1.4942628896933186e-10  8.7231768300551643e-05  -2.4231401818287340e-14  -2.7659169145615223e-14  1.1609015040879968e-03  2.3762085126161746e-03  6.0840140730930982e-04  4.5199546062271278e-04  -3.5526261255794143e-14  -3.1693351707391830e-14  -3.2413012496405471e-14  -3.2158577957236402e-14  2.5623735294413222e-06  2.6519450974372871e-07  4.4245328717512443e-04  1.2545033290551921e-03  8.6115868749798324e-04  8.5628440350036068e-06  -2.1158204643870830e-14  2.0304300766752252e-09  -5.3153666536868255e-12  -3.6594887277096944e-14  6.4130868383656143e-04  2.3173157913336459e-06  1.9538283489109370e-04  1.1777927410958027e-13  -2.3381520291923820e-14  -2.5321133440594521e-14  1.0506885480742101e-08  5.3312497376269911e-05  8.8522125966310119e-04  9.6925203305797724e-04  -1.8897462566659036e-14  4.7020040799762385e-04  -1.9320953201470783e-14  -1.7928333446565427e-14  8.5612191302203133e-06  8.5612191292206603e-06  9.4491710893309101e-06  9.6564442393261274e-04  2.3641155981518977e-05  -3.7709452744630057e-14  1.7679217303501282e-10  8.7340087722337736e-05  -4.3041284247222913e-14  -4.9430916779143961e-13  5.0138373471697348e-05  1.6056152152723149e-06  -6.6469243121130004e-12  1.0634446024790644e-03  1.3696118814425988e-03  7.5538335521201647e-04  1.3227905327599875e-04  7.0773036347742252e-12  8.6459661614974568e-06  8.5612570254639360e-06  5.0406744961932943e-10  1.7602385269159520e-05  -1.8241239290618933e-14  1.1220192217685326e-13  -2.2391231675370846e-14  -1.8247811318846743e-14  -2.8421291852369063e-14  -3.9042464354647555e-14  -2.2805831291918975e-08  8.5611947500456120e-06  8.5612191428854836e-06  8.5612191298967128e-06  2.4797097941958886e-07  1.1004179044617636e-05  1.0492644875519901e-05  1.9235272894313412e-04  8.5636669816219384e-06  2.5222177301557533e-04  9.4788141318817167e-06  2.8172209990360184e-05  8.5776832206314399e-06  -4.1028308896976846e-14  6.4277205575751233e-04  5.3040542680389172e-05  3.2825877333842270e-07  4.5275625208158806e-10  3.6435746749350134e-11  8.0889718767297258e-04  4.7829482554141227e-06  -2.2534193436083913e-14  -2.6718309702150100e-14  5.0297451400083983e-04  1.9162972494523055e-11  8.5757920883733241e-06  -2.0232208720519830e-14  8.5683192248956798e-06  -2.3449918631433560e-14  3.0529514213973116e-04  1.2548897754642118e-05  8.9162074361711415e-04  1.0501959777841192e-03  1.4348471450159513e-04  -3.7572845209634361e-14  4.0179337477020588e-13  1.6613335950978989e-04  1.3000238126507815e-04  4.8624038901843756e-04  1.0025601658006581e-03  2.4638541445022762e-04  1.4232111364654234e-05  -3.4150990745155540e-14  1.0348779600026393e-03  7.8855049565105185e-14  1.3607350324135886e-07  1.5445833483549304e-05  3.7600604115230023e-04  8.5612223971255160e-06  7.6569021310954794e-07  1.2050611174836946e-05  1.6806978877197611e-06  1.3837816858311146e-04  6.0788375606860565e-04  4.1260469221981766e-04  2.0465666303339402e-09  8.1233059901436946e-04  9.0171455751171796e-04  9.2491037418959568e-04  1.5343209152736887e-05  3.3778923667608605e-08  7.8271526529089719e-09  6.8454320602014678e-09  8.9919777814557551e-12  9.3292866883350758e-06  3.6223307360194527e-06  1.0580604991827485e-04  9.7250348307822434e-04  -2.9755444702932417e-14  -2.9274186057937417e-14  -2.7470387191157925e-14  1.4122272648797749e-03  2.0438541363265623e-10  7.1863360877331962e-07  1.1955901084341454e-03  8.5613235678072911e-06  8.5612201572724122e-06  5.0791757770929571e-07  3.0930080556818933e-06  -3.8886125282171648e-14  1.1986826509031948e-11  9.7082803957885969e-04  2.6366003119862607e-04  1.7150337007372392e-08  8.6832999203324927e-06  8.5922271481014605e-06  -3.6671924922801419e-14  3.2083582713416178e-04  -2.5436436736636260e-14  -2.5287006563554126e-14  1.4554903072592143e-05  7.9742205051838857e-06  2.7277392154446988e-04  8.5612191272741633e-06  8.5612191095109015e-06  -1.8987395036185591e-14  -1.9275542164096711e-14  8.5612221090929635e-06  -2.1282603732527553e-14  -2.1428361203318635e-14  -2.0508277671468532e-14  4.5658245975965225e-04  -4.2423547553217244e-14  -4.8980636180629706e-14  -2.9634782185968656e-12  -8.9401617563460165e-12  -1.9535132523862358e-14  8.5612191451129550e-06  5.0775933162816090e-05  8.6540393873143368e-06  -2.5437200692904097e-14  -5.1117493496303487e-14  -7.7634782526142914e-14  2.3135577802030511e-10  8.5615291766032696e-06  3.9889136738774041e-05  3.1463055279106421e-04  1.1450724775101619e-03  2.0296743668711200e-04  -1.9406029270423924e-14  -2.3478542427477946e-14  8.5612184185638241e-06  -1.9222999308625852e-14  1.0130939777987734e-04  2.7471508135903246e-05  9.0004495111084490e-06  9.1753811987028409e-11  1.3662939854262260e-06  1.4421591071363741e-03  -2.6483840364353913e-14  2.7081226944328127e-05  -1.3023768903574387e-13  6.7165818120235916e-05  -2.4359036565587378e-14  1.1282500297195835e-03  1.8616799923427429e-03  -2.1293082053084521e-14  -3.5876542224157879e-14  1.6823713825014148e-12  3.4388781169084087e-05  9.2263066701784873e-15  1.6831066954028253e-04  -2.7757899522019941e-14  1.0693948717976623e-03  2.0352854450437590e-05  1.3864295427981106e-04  -2.2974529802565585e-14  4.4294478954483875e-05  8.5700896543458176e-06  9.1294718422957684e-06  7.9371235542479115e-10  9.6288620949746516e-09  4.5291558340829219e-04  -2.6049953248994733e-14  6.0543163736221750e-04  -2.4634927305123261e-14  1.9080508939915663e-07  9.9744737858363866e-04  8.5985448478197539e-06  2.6729431829210682e-03  7.8998903960320665e-05  7.1176161582102037e-06  8.5612433493508359e-06  8.6660377770291733e-06  1.4904047308384692e-10  1.6931018290408698e-12  1.2825190744883780e-04  8.5612191296522185e-06  2.7197061503263768e-04  4.1223983870556745e-06  1.1222407637431062e-07  1.9394536802507600e-14  7.1603427412077246e-04  8.8669221001183769e-04  4.3773559459524929e-12  4.3478967206823905e-04  5.0536809066034849e-05  9.8550160355624124e-06  8.5617010287460357e-06  3.0795452503297406e-04  -5.4779321078785303e-14  1.0927093734825625e-03  1.2739324357683517e-04  1.3489155406102717e-04  9.4432192687372478e-07  3.0372667689913916e-04  9.4986941657666574e-04  1.8424600520167269e-05  4.5971569093456091e-07  3.0160632873020905e-05  -1.4529338855536576e-14  4.7716815790443205e-14  -3.6203344255619474e-10  1.0679082006593827e-12  1.7525260668180603e-10  2.0173545456580951e-09  8.6222087906505395e-04  1.1464558765568287e-04  7.3176882316458941e-05  1.4394595941166556e-06  3.2571329292636744e-08  1.4517314723185789e-05  6.2742846825830094e-11  5.9599090407577103e-12  9.2203990099440326e-04  2.3630966040948580e-10  1.5876946928730762e-04  6.5897458338358514e-04  8.7201919843725417e-06  6.6361143973485577e-04  -1.8386229763875252e-14  -2.0872659040275904e-14  1.6927340409103700e-04  2.5117029059728135e-05  1.3465670577113720e-05  -1.6039113541512036e-08  2.4772908672034501e-06  1.1941746913799569e-04  1.8275286803580931e-03  8.5613922140233339e-06  3.6033438151501790e-04  2.5303946993022428e-04  1.0885504768581434e-03  9.4287780739906189e-08  8.1711020408807815e-09  1.6258105476689522e-04  8.7065638343057986e-04  5.1244850329734660e-04  4.0530506354047834e-04  7.6372974981888785e-04  8.5192156892161447e-05  4.9468896977968068e-04  3.7685785755573614e-04  -3.7234469399475016e-14  7.7772806095113603e-09  1.4870325236515654e-05  9.2312721450875393e-06  -2.2469705170265179e-14  9.2811021905004208e-05  -3.1121257969489326e-14  -2.8510552972699207e-14  1.0339028724051953e-03  1.0884476501791950e-03  3.1791151203056100e-04  -3.6873600192290122e-14  -2.0152675704418696e-14  6.9937931033234081e-08  -2.6145234224415798e-14  8.5612430777787000e-06  2.2875073088226613e-05  -2.4435002518422337e-14  1.0638576045415406e-03  4.7910679986974528e-04  2.5730195299259579e-04  2.8173662965148524e-04  -3.4917130658096977e-14  -2.0209117586155435e-14  1.6924634144525851e-05  1.1955251474154785e-05  6.0235835534978713e-04  2.0975857262076699e-05  -4.3767081863960591e-14  -1.5115793588123651e-14  1.1957798687965735e-05  5.4828877205669984e-05  1.0408114021728475e-03  1.5598384695337660e-04  -1.7351419818249347e-14  2.0210344790155748e-05  -2.1715328441043631e-14  -2.1977797693712997e-14  9.6769683314417346e-05  2.1302360869772064e-03  9.2790294833248414e-04  1.1397760954102898e-03  -2.8071000147891487e-14  1.0356320837104773e-05  2.2473831443381724e-03  -2.3292760273584582e-14  7.2228701561208928e-13  1.0446914621815438e-09  -3.2663175348833187e-14  -3.0788696825387616e-14  -3.0248768012967773e-14  -4.0075876017516545e-14  8.5612199479994259e-06  4.4034215730228506e-04  7.5260704892070546e-04  8.5667939113344098e-06  1.1584363213424150e-03  5.4829310904725315e-04  -2.9153503678060028e-14  1.5973412172885101e-03  1.1119969907392785e-03  1.1611417657177018e-03  1.3013944067239158e-03  -8.7155039133881807e-12  3.7667710976693511e-05  4.2050123270176063e-06  -1.8248715061439727e-14  3.5036016396205427e-08  1.8164168041850093e-09  8.2104773811802524e-04  8.5612370331798779e-06  2.0439135367170686e-04  -2.3209839735484882e-14  2.9261137667229952e-08  -4.0715724481426673e-14  -1.8309158962474972e-14  -1.8996715513780342e-14  1.8172844361174456e-05  -3.5016972252334050e-14  8.5764468951726322e-06  8.5624803108083249e-06  7.7969468109627377e-11  8.0958363877538112e-04  -3.6564475274296807e-14  2.9687496683883954e-04  7.0154747301370802e-04  1.3372702774183663e-11  2.8636967539244891e-08  1.6191377541274778e-03  5.0818250373556933e-10  8.5612189149467356e-06  8.5612555492858373e-06  8.5615857703168261e-06  -3.2482791134740503e-14  5.4523569492870403e-04  -3.5233206491353370e-14  -1.9963469287930947e-14  3.9786809331836486e-09  2.0167143992339146e-10  3.0032294184159532e-05  8.5612190506723067e-06  1.9568677912532682e-05  -2.1824855622157659e-14  -3.0539405682782263e-14  -3.3645244847365056e-14  1.9215693000052814e-10  6.1481267115621487e-04  1.8487750982262113e-07  2.4533050894994460e-12  -1.8195375740431419e-14  4.5730578358716175e-13  4.2872570560005664e-12  -1.4370702623900159e-14  2.2589803955382689e-13  2.6153849987769926e-06  1.0449859352860174e-05  8.0361195038683133e-07  -1.7824514849946313e-14  -3.4226740771390012e-14  8.9461623251624534e-05  -2.1777841044873734e-14  2.7249949139057211e-04  7.1305680409669786e-04  1.4718362357024571e-09  9.4273085535533693e-04  8.0597105993282926e-04  1.3908659908503128e-06  4.5560976638000084e-05  1.3599253838664658e-04  2.1096144113586156e-10  -1.9878393381525738e-14  8.5612192137760291e-06  2.6639281340266700e-05  7.0702707048100465e-04  1.4682043312924948e-12  4.3211399947196059e-05  -2.0428367503034945e-14  8.8527260504661122e-04  1.8598726955688548e-09  6.4828931176599380e-04  -1.8627226530278718e-14  8.6352822058330254e-06  3.8767077563762999e-05  8.6308611416053459e-06  8.6508902887610887e-06  -1.8872792818133907e-14  8.5612191292611061e-06  -2.3419550379446092e-14  4.3022737613162404e-04  1.4538348416016640e-04  8.8410580387033012e-06  9.6151158767721377e-05  2.2902342041538563e-04  4.9217586623295325e-09  9.5857675304377409e-04  2.3490673884952544e-05  2.1908926278870196e-03  5.7467549332073554e-11  -1.8362251255084117e-14  6.4529775045441191e-04  9.6767698352485194e-04  5.3465194642594762e-04  -3.2688966851268639e-14  5.0674670309830785e-06  5.7548272564728639e-04  5.0498260699507395e-04  4.4212086355635642e-04  8.9953081028881708e-05  -2.9787458998602526e-12  1.9126791542298749e-08  9.2029968733024671e-12  8.6360785210544792e-06  2.1304068292884065e-05  1.0371923592460996e-05  -3.7985315479683580e-14  -3.9000252591615699e-14  -3.4856395057324618e-14  2.4884199142960482e-13  -3.6696853018242479e-15  1.9820924319765659e-05  4.4330540953293145e-06  2.2680065552586927e-04  1.0588597352512418e-11  -3.3895432761721624e-14  2.9800696502940131e-05  2.8386003861835028e-05  1.1686192934254611e-04  8.0922097337453156e-05  -2.0331411079793090e-14  4.8845980640806735e-05  8.4433801452506228e-04  1.5254192627735664e-03  4.8934949096886163e-04  1.0141590602135262e-03  3.9592528388694882e-05  1.1755121492056538e-04  -2.9093208100148412e-14  2.1009721827920403e-04  8.5612191275133010e-06  -1.8209356998255890e-14  2.9673553859809766e-04  2.7561688612064251e-05  9.9278377867094715e-07  4.3981393417620160e-06  3.2132474406372665e-07  2.5094580623204329e-04  1.3858768551580947e-10  3.1072826539731684e-06  9.1778301964158765e-04  -4.2507715935516365e-14  -4.1340676620041777e-14  -2.0825351198498150e-14  -2.2521190681467535e-14  -3.4678040853527181e-14  2.6719003706111471e-11  3.7168347657333539e-05  7.4301829501643123e-04  1.1005318762585641e-03  -9.0247018181631526e-14  1.8977005592593061e-08  4.0504103708203327e-04  -2.5339990779195407e-14  1.1572476035252155e-04  1.8524952415380345e-06  4.4662338173021526e-10  8.6873563430702348e-12  8.5612192865075669e-06  7.1940119526778739e-05  8.6438411496908090e-06  2.4762467860687013e-04  3.5704627758569678e-08  -3.0778797922976313e-14  5.8566575965835800e-04  7.8953630986792925e-04  8.5612191299308059e-06  8.5612191304121358e-06  9.6490528203962481e-05  8.5612169489079570e-06  8.5779217558813588e-06  7.4609480367578561e-08  -2.4730946531063568e-14  -2.6101705676538632e-14  8.5242862957109503e-13  1.5753328545530392e-11  2.6540099261733176e-09  8.5017738756059554e-06  8.5598283397818633e-06  8.5611936442248497e-06  7.5567777084178585e-06  -3.5978680070223324e-14  8.5612191223779978e-06  -2.3251210085795640e-14  8.5612191320329469e-06  -4.2187047867868723e-14  -1.8118060551939648e-14  8.5612191285309772e-06  -3.8514922901354744e-14  -2.7501380888111936e-14  1.2950061253362359e-12  2.5747892085039572e-10  7.9179502188138297e-04  3.1965045996069952e-05  7.0547825559039574e-05  2.2874801270665024e-04  3.2664116696971862e-04  8.5612195665922060e-06  2.2791384947494226e-04  7.5224444390656659e-07  8.9390055946222728e-06  7.6561595695496135e-07  2.1603256227958118e-05  1.2332371540925253e-05  -8.3960370468485776e-15  4.8107610583983736e-14  5.2341987864895046e-14  7.0506758427673797e-04  5.7336276153959849e-05  6.9373200161763457e-07  -2.5412872144395075e-07  4.5379910178737123e-06  -4.0356195480711636e-14  5.7519916933949854e-06  8.5631513802962538e-06  2.2185418571222430e-13  8.5668563959114536e-06  8.5612698226378604e-06  8.5662317546665650e-06  8.7564388124314738e-06  -4.3516767445121741e-14  1.9199881313399145e-03  -1.7989698653666426e-06  4.2783421318362452e-12  8.4735195800295852e-04  2.1053076093301159e-10  1.7941673402662578e-04  6.1765423877831058e-05  2.1526665748238696e-09  3.8579135688229219e-09  8.6285232963811312e-06  5.2266990330656049e-12  2.4754084310580498e-04  1.7845079565275998e-03  -5.2505256150156103e-12  3.5553115701436616e-04  -3.3254556618680047e-14  8.2702675556336894e-04  1.0062007750647631e-03  6.6299559929832678e-04  -1.9214039692004929e-14  -2.3582410859683241e-14  2.5129348127594852e-13  -3.2862536362842136e-14  1.3370613757884950e-03  3.7438299519764878e-15  -2.0815367125610392e-14  6.0334237227880222e-09  6.9043638420550086e-04  1.8931663299971188e-13  1.0320890737660073e-03  1.1233494257447598e-06  1.0542855797868339e-03  9.9859945755542061e-04  6.8556313103263971e-07  1.0017289850409605e-07  5.7688462968184095e-07  3.3314427509779371e-08  8.5633761107932167e-06  6.0730308748084082e-05  1.0343627990479286e-05  5.1076578752316603e-05  8.5650721170411073e-06  8.6319579218571345e-06  3.4830411670268855e-05  6.6106306923634854e-06  1.1135643172141649e-03  7.8372043302082841e-04  -1.9689871344568868e-14  -2.4516212462382126e-14  1.2381157587813118e-03  2.9561600275731148e-04  8.5613328838817719e-06  8.9734312773440938e-06  1.6145995487925595e-05  8.9519174930757743e-06  -2.1173712524436649e-14  8.5622689976215479e-06  8.5940785908199305e-06  8.5676454209308011e-06  8.5622622465509304e-06  8.3051563952658738e-04  4.3785026162255008e-05  5.5125744118092067e-10  3.4806074307031051e-07  9.5065850379558042e-08  6.6656294695956270e-05  1.0569413511473110e-04  -1.8962490939186582e-14  2.4824598443450815e-05  1.0236355616670127e-05  -2.2726162605837812e-14  -2.9734010728867813e-14  9.4507902006983309e-04  1.2486780196898353e-03  -2.3750823675418709e-14  1.1295296717310835e-03  3.1870589562645746e-04  6.2843524311616467e-04  1.0329807545171126e-05  -2.1695474439124622e-14  9.1734970335147640e-06  8.5612191488504421e-06  5.8787448640066298e-05  2.2003263610106648e-04  1.5204518123459722e-08  2.2215009126396482e-04  6.6910280133586429e-04  8.5106485542775728e-04  1.3683150479468255e-03  -1.9911607431253512e-14  2.9763821886441034e-04  8.5686085270793159e-06  8.6350396722922334e-06  -5.4057804764099580e-14  -2.3246906353199152e-14  8.5612203215663430e-06  -2.2636847649574261e-14  -1.9815732624544996e-14  6.0057135883717297e-09  5.9242079528516766e-04  -2.6674743312094480e-14  3.1394254848772979e-04  -9.5454807000983740e-14  -2.1989258877275193e-14  1.060462