<?xml version="1.0"?>
<VTKFile type="UnstructuredGrid"  version="0.1"  >
<UnstructuredGrid>
<Piece  NumberOfPoints="6486" NumberOfCells="12696">
<Points>
<DataArray  type="Float64"  NumberOfComponents="3"  format="ascii">0 5 0  0 0 0  5 0 0  5 5 0  2.5 0 0  5 2.5 0  2.5 5 0  0 2.5 0  2.5 2.5 0  0 1.25 0  1.25 0 0  1.25 5 0  0 3.75 0  5 1.25 0  3.75 0 0  5 3.75 0  3.75 5 0  3.541666666666667 1.458333333333333 0  1.458333333333333 3.541666666666667 0  1.875 1.25 0  3.75 3.125 0  1.284722222222222 2.326388888888889 0  2.683189655172414 3.767959770114943 0  0.9375 0.9375 0  4.0625 4.0625 0  0.7252209595959597 3.026357323232324 0  2.763480392156863 0.9129901960784315 0  1.875 4.345238095238095 0  4.345238095238095 1.875 0  4.192708333333333 0.8072916666666664 0  0.8072916666666665 4.192708333333334 0  3.368055555555555 2.326388888888889 0  0.6837606837606839 1.738782051282051 0  3.285485245626782 4.324328415208927 0  2.551239698778062 1.693130150610969 0  1.827256944444444 2.868923611111111 0  3.464875022477093 0.6813924607921316 0  1.942880513719175 2.059558626187995 0  3.04563492063492 2.971230158730159 0  4.375 3.4375 0  2.13639445139758 0.5994472256987903 0  4.272228422619047 2.606956845238095 0  0.625 0 0  0 0.625 0  5 4.375 0  4.375 5 0  0.6400043240752655 2.384646170113389 0  1.347691225855598 1.660875475110776 0  3.515783617857982 3.723905460714006 0  3.125 0 0  1.875 0 0  0.625 5 0  4.375 0 0  5 1.875 0  0 1.875 0  0 3.125 0  1.875 5 0  5 0.625 0  0 4.375 0  3.125 5 0  5 3.125 0  1.489644181965304 0.6007147273217681 0  2.054597701149425 3.742302955665024 0  2.662520990197781 4.39452575763237 0  2.415835363784578 3.165530021913244 0  0.8679986894865213 3.602373689486522 0  1.267459753787878 2.886186079545454 0  4.099702380952381 1.365327380952381 0  1.316964285714286 4.438244047619047 0  3.7915135293491 1.959691594758709 0  2.875141124191255 2.118761176511833 0  3.00418010501169 1.397414179299248 0  0.4081721322167092 3.410647930198662 0  0.4166666666666666 0.9375 0  1.014190407998288 0.4422301359994293 0  1.383260571305984 1.162718286082048 0  4.53125 3.90625 0  4.453125 4.453125 0  3.772848162504192 4.48678272083473 0  2.8125 0.404329517041716 0  0.4538690476190476 0.4538690476190476 0  2.305461739347387 1.04517007574828 0  3.771263799175824 2.624190260297553 0  3.229617768018734 1.809956994202883 0  3.780190884441317 1.025307111692601 0  4.646337365591398 0.9375 0  4.537623451379149 0.4609485750426037 0  1.200477888421151 3.934852888421152 0  0.3536626344086022 4.0625 0  0.4623765486208503 4.539051424957397 0  4.0625 0.353662634408602 0  4.560525106689535 1.390989100915847 0  3.958439078571988 3.619844539285994 0  4.672619047619047 2.1875 0  2.1875 4.672619047619047 0  1.862808494877602 3.325947624431087 0  0.3268135998175443 2.8125 0  4.674181280189791 2.8125 0  2.283233994935276 4.138623547175983 0  0.9375 4.677879119362977 0  3.08488061581743 3.469889594488945 0  3.113427375573758 3.913955730709506 0  1.652847799068813 3.950848935641292 0  2.932652662909449 2.550542739521724 0  3.311350648514189 1.088831994878698 0  0.6770833333333333 1.295851139601139 0  0 1.5625 0  1.047214787840024 1.96818092308125 0  4.183331482095785 3.03958703580843 0  3.4375 5 0  1.071307777252521 3.246275861010018 0  0 2.1875 0  0.386576856303419 2.03125 0  1.713862716483534 2.439783116849799 0  1.775396256975935 1.665976816304977 0  2.231236976948428 1.443917394671254 0  2.373900732409897 2.086930260150635 0  4.114918237574474 2.221646174618671 0  3.661302567757379 4.099620139144836 0  3.378215938602977 2.734494874063393 0  0.9842097536079312 2.597286741306247 0  1.642795138888889 4.672619047619047 0  4.0625 5 0  2.099458800960004 2.567446522665629 0  2.616202751603346 1.297895893940078 0  5 4.6875 0  0.9937554350075428 1.512592975947215 0  2.8125 5 0  3.002695327068194 4.614055254615477 0  3.205627424097207 0.3852436382721472 0  1.678616581261621 0.927556612265266 0  3.365326698305438 3.196943731162083 0  1.554834936170314 3.120009882655813 0  3.108408340729323 0.7797187795784133 0  3.684368918102174 0.3728877601163941 0  2.716214835303553 3.39276351922003 0  2.37718583984784 3.551973401560441 0  0.3750662445374837 1.52191994866787 0  2.679073487930202 2.844160731602957 0  1.557635869750078 1.991068682985722 0  1.812595698561088 0.3839273018252746 0  2.512014721281916 0.6320641118792227 0  2.1875 0 0  2.349973454443689 0.3189980586887866 0  4.6875 3.59375 0  4.636052949022233 3.178355898044465 0  4.6875 5 0  3.345485909784306 4.665765449101383 0  0.536727472389443 3.749603193819277 0  4.349541499640203 1.116201826262156 0  2.886559045931982 1.774013674579691 0  0.6770833333333334 0.7142857142857143 0  1.5625 0 0  4.120842096538671 4.628726497527622 0  2.176157474177018 1.793470423744689 0  2.175650736889416 2.909863021769539 0  4.036616464259081 1.709699085170981 0  3.887974623473683 0.6492597046022868 0  3.4375 0 0  3.70675699592552 2.289666624772415 0  4.697265625 4.208984375 0  2.815177577303495 4.085937578239174 0  4.672619047619047 1.730733296184288 0  4.6875 0 0  5 0.3125 0  0.3125 5 0  0 4.6875 0  0.3276089296588581 2.484526834811734 0  0.712433309515852 2.065138854645612 0  0.6376435912223634 2.711473454001295 0  1.184991292170422 0.7222504400947201 0  1.31884329779317 0.3206944232264773 0  3.683609198994263 3.44428698533042 0  0.3125 0 0  0 0.3125 0  4.231797269642997 3.789141808928991 0  1.564375596050781 1.425998687184973 0  2.007640894175573 0.9032106925568466 0  0.955125897558294 2.276666098587227 0  1.43898735721003 2.611310720271951 0  1.954491523717513 4.040700257877075 0  1.752947649777421 3.652439445419346 0  2.509575750247638 4.678021307664052 0  4.687194709705067 2.499965519538002 0  1.5625 5 0  0.9375 5 0  5 2.8125 0  2.1875 5 0  5 1.5625 0  5 2.1875 0  4.0625 0 0  5 0.9375 0  2.8125 0 0  0.9375 0 0  0 0.9375 0  0 2.8125 0  0 3.4375 0  0 4.0625 0  5 3.4375 0  5 4.0625 0  4.010848109290813 3.306446973933037 0  0.3077461147713075 3.119700563473354 0  4.6796875 4.6796875 0  2.333079012424948 3.845757959077508 0  0.7829771267899832 3.317744656243421 0  1.159100632608513 3.532487125138763 0  0.799066251840424 3.893573750162776 0  1.57326499580282 4.255438189102632 0  0.7309366047093668 0.2991402264438908 0  0.3054777494262156 1.223275888123843 0  4.027475154280377 2.78211326942427 0  2.35270874745988 4.426658168476266 0  3.474236283732569 2.021154281686229 0  4.401414236174444 2.329446628171927 0  3.39403781747337 3.987097102903034 0  1.077524329801934 1.214100792470484 0  4.065611571711903 1.066085524514197 0  2.165399002716117 3.335637450367864 0  3.007639563081306 1.093684039371638 0  4.030818285732145 4.351883315180857 0  3.504115222530889 1.739284194222036 0  1.224503368215566 4.712091441401919 0  3.805634204685714 1.321528442399996 0  4.319233123479386 1.573547993867769 0  1.024007670021325 4.394604704797005 0  3.776400432023095 3.839003324979723 0  2.991819819453308 4.320567175146181 0  0.9782797534072181 2.886406017887129 0  1.763835134082104 0.6602345487826022 0  3.765182288741625 1.631193038541544 0  2.267959593989681 2.345053543725764 0  4.412434895833333 4.168294270833333 0  4.4072265625 4.7255859375 0  2.791493971314009 3.11210833271929 0  3.408766223032414 3.469500900677365 0  1.915147569444444 4.725484476461039 0  2.070301968506271 0.2605666686358055 0  2.767932250651506 1.530295992695836 0  3.280065043173439 1.364863281105779 0  4.45101570110842 2.974157152713635 0  3.521928862999512 2.96990445010402 0  2.552921961347576 4.008414007169315 0  0.2682955376854191 3.657555015841003 0  3.084522868361304 2.310593316718068 0  2.669255823227708 1.939379494498064 0  2.615884629473921 2.238841231570381 0  1.405652091971449 0.8877813821442277 0  3.25151486618811 3.68536115104276 0  1.963741569810629 2.331207252264507 0  4.017297980292599 2.486269171379106 0  3.869168920841219 4.748188103831625 0  3.596868753579134 4.77342723825056 0  2.41262958240343 2.764128584995838 0  1.266750578673391 1.404747710001619 0  1.559243962241121 2.85146506328516 0  3.128799423834764 2.052081657715259 0  0.6770833333333333 0.9778025793650794 0  0.2083333333333333 0.78125 0  1.978224492765132 3.087074731032578 0  4.051448850909273 1.969392119104174 0  1.320577095006813 4.172234780971559 0  3.214261103850064 2.534397293281829 0  0.2635729089754111 1.779234736680035 0  3.510775680035133 4.460728640112889 0  2.603081405968802 0.2432579385496493 0  2.866341315154884 0.6662105505481998 0  3.000919221100777 0.2270278495648781 0  1.298858304121393 2.05917319923859 0  2.020292299736597 1.589794568392338 0  0.7401688396476035 4.470780315741533 0  0.6721783535561408 4.733125588707921 0  3.753712482075402 2.874301339727514 0  3.557348205914658 2.491958694539413 0  1.094565978195436 0.2011034254079851 0  0.9338148378011396 0.6833568465908735 0  2.945530578578538 3.701798332963805 0  3.111707186654356 3.216904195825605 0  1.341791111822685 3.293123262233967 0  1.632939924064587 1.184895891095613 0  0.6335477978936732 3.517393619499591 0  0.5576014611130192 3.210998966942492 0  1.564344196470102 0.3630498725895039 0  2.75362450242839 4.626680495816594 0  3.571304405229554 1.192452351107437 0  3.522934592621944 0.9359134489437148 0  4.453125 3.671875 0  4.765625 3.828125 0  1.055906321410838 4.14310472322957 0  4.795146539102229 0.46875 0  4.767156345199235 0.7178596932040019 0  0.2048534608977711 4.53125 0  0.232843654800765 4.282140306795998 0  0.5393715189906129 4.270810883024032 0  4.329922600274667 0.2750645887059072 0  4.275515096738972 0.5448389557295173 0  4.477747423652795 0.7252838358993123 0  0.2002829820452772 0.46875 0  0.4352678571428572 0.6956845238095237 0  0.5007241582667088 0.2123388122114133 0  4.672890923830735 0.2500902110494848 0  0.4308009280819452 4.783624996516437 0  2.104871305393774 4.438653689007242 0  0.2274454167838428 0.2274454167838428 0  3.446466574593436 0.4359605369011901 0  2.12354112127588 1.217588426759619 0  2.309175236825235 0.7888355970690434 0  2.556178570281936 1.054299163237582 0  0.578683248637
[...]
<PointData  Scalars="f_16-3"> 
<DataArray  type="Float64"  Name="f_16-3"  format="ascii">8.0023456693827233e-37  -4.8696580049390798e+02  1.8439986375525552e-35  4.9168033398732361e-57  2.3916990456136497e-14  -1.8740664613265187e-40  4.0839478431206506e-42  5.4305862807754747e-14  -5.6606578190011420e-21  1.5356309870010975e-04  6.0656813733199549e-07  5.9825583278702534e-41  1.0433675992427133e-25  9.8863053132882810e-40  -9.2065004957251181e-24  -1.9099865793994172e-49  1.5244388059057490e-48  -3.3206131090436429e-27  1.8873134839211744e-25  1.0152768143181494e-11  1.4940367644402802e-33  -2.5217080453269641e-14  -5.0782810677218992e-32  9.6094393422999001e-06  2.2717236537008811e-44  1.2218403300130338e-19  1.7657617363648736e-20  5.8678043096921024e-34  2.0667249160746700e-36  -1.9391075406979118e-31  1.4353768685999555e-32  9.1545027057788515e-25  -1.6458702459951668e-08  2.4863321936237810e-40  -1.2293766913167204e-17  -9.8000357181326973e-21  2.3318846292628481e-25  -1.0183794912354260e-14  8.3922072276973684e-28  -3.1534613089272236e-40  6.5239646359344452e-14  -1.1761537729271844e-34  4.8924351568885013e-02  1.1017599075933771e+02  1.1572221700571108e-52  9.6767755615265325e-52  -2.7478715762073946e-13  -4.9402959270609535e-10  2.0236363423781276e-36  -2.4138926992025306e-19  -8.3661228155587910e-12  -5.3760555944710063e-40  2.0480427467998526e-29  4.4856657301648056e-42  3.2507967089779072e-10  6.5866713207476250e-20  6.6424321808164262e-41  -1.7040007126437745e-37  -5.4278240067509636e-31  1.2274885374146753e-44  -1.1526182635932829e-43  1.4304812958376569e-09  -2.2670711104293779e-29  -6.7018451977154515e-37  -1.7219869516063149e-25  1.3365276098000683e-25  9.7687931339159308e-21  1.3485906457080400e-32  -1.2671031260900693e-34  -1.3230514537142007e-31  5.0914198938655281e-21  -1.1401711139023509e-22  2.2047226529870743e-24  3.6153587668961804e-02  -7.1082240459723335e-06  1.1010877458042631e-06  -2.5920937644473413e-47  1.6654760157112546e-49  1.7750994271994985e-44  -4.4420821240830473e-21  8.6297582688696572e-01  -4.9862866439159489e-16  -1.2670913278031453e-30  -1.3391598820915744e-23  2.8390958999834998e-29  -5.9269877824154910e-34  4.2100277958537528e-33  -5.1587076218636627e-30  1.0263423229540793e-30  3.8271996394615848e-34  -1.6897780776584980e-29  -5.1652455160200755e-38  -9.9843243825983081e-39  -6.2493106565113211e-39  -9.2025817140475039e-39  -5.4555692522716428e-25  -1.1533761405624754e-17  -3.1330377586070161e-40  2.3665227479366817e-33  -6.2533409153184092e-39  -5.5812338597395237e-32  3.5271959615737603e-35  -5.7102317244935735e-29  1.1264760542506374e-24  1.9509931421713937e-25  -4.8774806213042118e-05  8.2449776446671967e-08  1.0704084135993547e-10  -6.0264960588915793e-38  -1.0151195480118852e-47  1.5987241577637216e-22  7.3301249555745754e-13  5.2374370961922299e-10  1.1141659833405772e-16  -6.4468922161904791e-12  3.9903072094620178e-15  -3.7533540203352324e-19  1.3291391984810028e-32  2.1699713181440884e-39  1.3358130761532717e-27  -2.2464808606418458e-17  4.2457791998089204e-37  -1.3239004084572128e-48  7.5435158526274027e-19  -6.9428321177083451e-19  3.1417394715928210e-56  -6.2449896779352441e-09  6.7683155107285847e-44  1.3645141992805675e-41  1.6994416205935272e-23  -4.9662250720489509e-10  -1.9695588283471118e-31  -8.2217673080315460e-22  5.9255181280774592e-23  -2.0181707192782231e-24  -5.7686609061765394e-29  -1.1651017490259101e-28  -3.5081112356575309e-05  -3.2164586434336923e-25  -3.1478772520668559e-12  2.2262167231284513e-12  5.2105368922793322e-18  1.4548410573156203e-13  -1.4199750454994360e-14  3.7598380610106773e-45  -6.7078946813400173e-41  -2.5031358349112135e-57  2.5487070189067805e-44  -3.6730755870723940e-28  -3.2520937010787315e-36  6.0231117811863366e-21  1.1665726267157950e-03  1.5898492320123546e-09  1.1117652165616551e-48  -3.5255962200541279e-14  -2.1390435532488663e-21  -1.2344992168627967e-32  8.3226260428972783e-29  -3.1937369707925080e-22  -4.3517274237833153e-27  2.5738180391896901e-49  2.9089863559636762e-35  8.2506486923196855e-40  -1.4668765957826832e-31  3.0791451101357091e-36  -1.5064629937430030e-38  4.7200277346743969e-34  -1.3552868266146321e-14  -1.9448343709281424e-11  4.8182559420715336e-16  1.7156675538382459e-07  8.6486091443408427e-09  -4.8736424863636539e-35  -2.9940213674083655e+01  -8.3892307323124696e+03  3.0443796793341220e-42  -2.0542872694905113e-09  -1.6309654048842996e-13  -1.2969425532497150e-14  3.9197628795371091e-17  9.0223436727942436e-32  -7.8250934877273362e-27  -6.2897271169082361e-40  5.0492451866664129e-38  1.6499536093607594e-39  2.1727732650347582e-40  1.5165433337910815e-42  -1.5276159096339251e-41  2.2778354441282722e-42  -1.6139626502242271e-41  -5.3523394856065705e-27  -2.7909760892454409e-37  -2.3397505876920700e-16  8.4117756042441003e-04  -4.2541056821603296e-01  4.5754506581127070e-17  1.4271908149382710e-21  7.4182451828623376e-28  -4.9555442913480442e-46  1.4461044774422644e-50  -1.6101610503390201e-36  -7.8429641758318842e-21  1.1535894611125771e-52  -3.5004328573563381e-30  -8.2501502540977034e-23  -1.1637125007109114e-26  6.5486053126529733e-29  6.1670479068163383e-33  1.7813076601494039e-02  -2.9538498360509808e-03  -5.1598124811628199e-34  1.3756918108733903e-36  1.0695901591892635e-25  -4.1749751352183309e-35  -9.8938099116648499e-37  1.3979690508381274e-06  -7.9944979439030809e-32  3.9929119860827375e-25  2.6036758210437770e-22  6.5324165692975675e-45  -8.5915003131323461e-27  -1.4442623861271537e-37  -4.4652515858113397e-30  -1.2290458626375365e-34  7.8801639736669404e-34  6.7378916223731879e-39  -1.3826478421357824e-38  -5.7709970838194223e-20  -1.4379771912112039e-12  -2.5912431768183329e-29  1.8828898852586414e-18  2.9923866400382050e-47  -1.1796760213389114e-50  8.7306889005586698e-28  -7.6558787589050917e-34  2.3982259344482867e-38  1.1902108309108357e-12  -5.2187487696681467e-19  -3.5219348355841720e-25  1.2545697359629040e-38  -1.2340255324331113e-30  -2.0373021382758077e-33  7.1332068504567803e-26  1.2779489701055686e-23  1.5423875884576703e-18  2.4723475449566736e-21  -1.8275148681332883e-09  1.6278143778106815e-33  4.2399288595832636e-16  -5.7883614596955769e-32  -1.5685484915810302e-46  7.8055868855503174e-46  -6.0547020665418817e-22  -5.4606456696472050e-07  -1.4872509806477336e-20  1.0245473075109401e-22  -8.7397426979708237e-04  -2.5495216492583422e-01  -3.1454960008893270e-22  1.6908993781360422e-32  -1.4533065414259002e-32  -4.4439351136484363e-26  4.4113038660177424e-08  3.4356130533205122e-43  1.9886937270825226e-16  7.6397853882176738e-21  -4.5283405576737412e-20  -1.1811862619073009e-12  -1.2867028687780951e-12  5.9399842362081703e-34  -4.6627661937567033e-37  1.7963694013176884e-31  -2.0935165905190213e-27  2.0265646717803631e-05  1.7825086641783279e-06  -4.1573896088162461e-32  -1.0464097530636935e-29  -6.0082442786382516e-24  7.1575025289511582e-09  3.9713943009923414e-25  7.7169045900024033e-22  -1.2202247559128932e-09  6.3584989360796460e-39  3.8340075691020758e-27  1.2748078461684008e-26  -9.4383374804791759e-44  8.2115587136176662e-49  -4.0719119611295847e-33  -1.2743882762548070e-34  4.2914842804149401e-36  3.8435661176884154e-33  2.5415745084151547e-31  2.2299520831702942e-32  -7.6178103649357420e-30  -8.9848141664352428e-31  -8.2977260262685217e-32  -1.2030498440276676e+03  4.0499365369842116e-01  1.2687193226307500e+01  -2.6452294687695370e-32  -7.3874166257154670e-37  -8.9522468192604126e-38  -2.5856409366410921e+03  5.2451599275902317e-24  2.7479475274925911e-15  -3.8245383458216348e-15  2.2700334932878615e-18  -3.6569012377627846e-31  -3.2726206137113851e-29  -3.2041120528824515e-15  -8.6346932075708653e-28  -2.7981712917009906e-26  1.0236668300060981e-37  6.2583506372510735e-41  1.9430545873853952e-51  4.9641835560172173e-07  3.5789678478241150e-28  4.2180762530329670e-28  -5.9190887611681079e-23  -8.7016933114487731e-40  5.1147151397437788e-27  -3.0258038192190957e-28  -9.9313013565290952e-10  1.8672003429881362e-24  -4.4102277129168695e-27  -3.6521151999811384e-35  -7.8765867656068223e-11  -2.2628017187047725e-38  1.7359613102802392e-35  5.5913579345210328e-13  -1.3329604462560496e-39  -1.3286625335008434e-06  -5.3194050571596902e-17  -1.2046407080961521e-40  -6.4296008735935287e-41  -1.8127890538972315e-29  -1.0091753328963565e-40  2.0832154050080360e-18  1.4908260876413392e-16  9.4326255918518334e-43  -3.6296503082480232e-37  6.8630122035116386e-14  -9.1994144256626201e-22  -3.5144009283206726e-25  -4.6012370933506978e-42  -5.6280196732826438e-23  8.4609224320134385e-43  8.4194826915846093e-38  5.7526000481514689e-23  1.5068614677378721e-39  2.2460923538320254e-18  -2.1289260616723863e-07  9.9370967110595565e-05  4.0526910360063851e-03  2.3144530354103023e-25  3.5957906091500231e-23  -5.9867642690206273e-14  5.8005304163333008e-40  8.1568348037060204e-41  -2.8792737124169559e-41  -6.8862935773355436e-36  -3.8505710937848864e-55  -1.4411804119612710e-34  -1.6464431451133088e-35  -5.3980293521765613e-20  7.6854425073589659e-51  7.9471128968305254e-22  2.9844881203655027e-39  -1.1951054955391938e-31  6.9475737307467254e-29  -2.9278425592552787e-24  -2.3370032743572692e-19  -3.7086458170493297e-04  -3.5542758996224714e-46  -1.9082021717572242e-30  -4.4016013301081952e-17  1.8370222257839455e-17  8.5407454311482683e-43  -4.6221480510383490e-11  -2.8031875142452682e-11  9.0583050755528575e-10  2.3344714088828632e-13  -1.0982405592609350e-31  -1.6261159464923723e-19  7.1738211350414984e-29  -5.0101211511657990e-24  4.4349024480517048e-31  4.0570758287944449e-34  -1.3633557466852148e-38  7.4277292406802733e-23  -6.4159188305017111e-17  -2.3176078866300512e-07  -1.4553357994089450e-34  -1.7334673285827273e-09  3.5675533348793658e-14  1.8322638651899699e-45  1.0808513781578912e-25  5.5201008392215423e-23  -2.2134606823757457e-42  1.0237705658143504e-19  2.3891990513291030e-02  3.4358478918078539e-11  1.5975181744134139e-31  -5.1363110958634462e-35  3.3278285057009455e-25  -6.8647110348212625e-33  5.8147193403206735e-43  1.3182458377387434e-21  -2.8392197832604530e-09  -2.3349588122302403e-33  -3.8502528595319991e-17  1.7544211437198653e-18  -6.1015393358836935e-16  -3.4567443486915923e-35  -7.0905552093914337e-24  2.5259697886866930e-20  5.7562721069155823e-29  5.1011706180381287e-06  1.4804972784742000e-13  1.7594216501276809e-40  6.8199383898730749e-20  2.1009582195214331e-33  3.2984176950316966e-38  -1.9310551033888313e-41  -9.6042107845079247e-19  -1.7259842032921835e-16  5.1025327126791863e-28  1.7687075475706453e-33  2.1289775616821510e-38  -2.7575207470702679e-41  -1.6198732258657672e-08  -1.7328222896441949e-22  -1.3920527382039741e-38  -2.0004291494950743e-36  5.3567393377653101e-29  -6.8049399559190012e-17  -2.5482274653691958e-30  1.4702937705049449e-17  -5.4331803327664433e-37  -1.0011060156269584e-08  -4.8868034235878874e-38  6.5328175790431343e-24  4.5612519014167366e-16  5.4812063764195075e-27  -2.4008428616593842e-54  3.1286270913914725e-12  -7.7099398975394368e-32  1.6138831143166713e-21  4.0348716006906020e-12  1.3856855655905796e-30  1.0712383083658842e-27  8.2901709391473433e-12  -8.1904630915137355e-41  1.4856383029782038e-48  3.0766584118517909e-39  -6.5543825851626451e-41  2.1588796319582986e-13  -8.2451270713053438e-07  -1.5050998914437265e-21  -3.2446076477215367e-08  5.8368059077093198e-31  -1.3789526806940093e-22  -1.3273294078314258e-14  -5.5871192068280751e-28  6.0779768277029899e-28  1.3970439255556009e-17  -4.2585190224523290e-36  7.1772445853731409e-10  -7.9236411705665526e-23  1.1853286809461339e-04  -1.6323286964520264e-26  -6.8143480131695937e-09  1.0540365797834198e-10  -4.0962282940647138e-16  8.1480374122011531e-20  -2.8325515985893387e-19  9.4785427678104587e-30  -2.1897770575818355e-31  -2.2614593438628571e-27  -2.0378741868621087e-04  1.0757682868590309e-40  4.2760287425844385e-45  -1.5269475095816078e-48  -1.8136464800607470e-36  6.1484395854142905e-17  2.3781534536734776e-46  5.7666589600349789e-08  9.4983358838741392e-14  -6.0282878278950288e-16  8.1823711413264633e-34  1.1257537664490176e-20  -5.7500250378858791e-21  4.4707796464663256e-39  -1.2868934437124174e-22  -7.8770738103004152e-43  -1.0124952449919798e-39  -1.4926790980750128e-29  1.7612614729404015e-41  4.1557750157693717e-28  4.2120605118427615e-46  -1.8437451440170558e-31  4.1518317260369921e-23  3.7751171525545249e-20  -1.5808066753618467e-03  -5.1114581695830092e-38  -2.4117878997658835e-36  4.0538031588783436e-39  -8.0544641477527320e-12  9.2996100618216166e-27  8.8466060540659995e-26  3.3622838343347241e-27  -5.1289412601868333e-49  -1.1004727764362461e-11  1.2043146633738264e-34  -5.1737815158834834e-13  -4.4233152576594900e-12  -1.5377118224790035e-30  2.4695210004818440e-23  1.7424881661587979e-30  -7.8816372006136985e-40  1.8591077792374357e-38  2.0773206406314552e-13  -1.1980621627404983e-10  5.1621292659929460e-22  4.5277316105429765e-38  -2.3713995537096152e-34  5.7021646309894794e-27  -1.7093112987221291e-25  9.6610599514690898e-28  -3.0864132864747146e-35  6.6539238675203731e-29  5.2134894486556331e-42  -2.5874636617933892e-34  3.9870980244923237e-16  4.6124090240500181e-41  -1.0718238640083730e-34  1.6632067980815055e-32  1.1345148178930140e-30  -4.2708487881509865e-47  -1.5956439691062787e-46  -1.9236682674189207e-44  -1.2486785075703109e-35  -7.3415063850890672e-35  -3.0477367223948122e-32  2.9505117844169681e-12  6.1609228388789986e-14  5.5218466060203449e-25  3.4592718113948883e-42  9.9085789070387003e-46  2.5564550904650529e-26  -1.1382588392149191e-50  -1.6938894654991198e-49  -9.7618173464133417e-20  2.6063438782304633e-21  -1.7002921616249242e-33  -4.4758549478118756e-32  -2.0379960303242179e-26  1.1730637646743031e-10  3.8292756584573466e-37  4.9583458265388059e-37  -7.2183051693140415e-32  6.9513678041188782e-03  6.9528901033524891e-04  -3.2435722317674678e-04  -7.0511444928821981e-29  2.8812656556154640e-34  5.1481766218532347e-32  1.1522840513307192e-08  -6.1413541561519234e-40  -1.3650275164804267e-34  -4.8327297984869487e-20  -8.4114586397253221e-25  1.4703738929374484e-36  -2.3589865944206285e-54  1.0773199871060167e-28  -6.1862656689561712e-45  1.1316177099103738e-50  -5.3651785991509303e-08  -4.1233180620427914e-21  -3.0488941761833548e-28  -1.5908702538624371e-36  -8.5447964635120975e-42  -1.5660022678779943e-25  1.7521049663414090e-35  -1.4601600876366657e-06  1.0525827425048882e-23  7.7861625376171199e-50  -4.9813277659506255e-22  -1.0131961900870894e-10  2.8884912737718647e-18  -1.8525088827642274e-33  -1.2670103330631960e-15  1.1400563648023467e-19  4.2463214265765333e-16  3.7651597361677612e-37  -7.9397855836062986e-29  7.2588398339068536e-02  -5.5066743863742293e-17  -2.8929518829855162e-08  -9.3297410288552294e-07  -7.9804714440019528e-09  2.3594732814853113e-06  -7.9409018136657289e-07  -1.6265049996370208e-39  1.8895335734979866e-41  1.1661837171835919e-23  -5.4680926714924999e-21  1.4446249958915585e-19  -1.7845485309594892e-17  -5.1194884143337296e+00  1.8495552842550239e-35  4.1895332340745991e-37  -5.3881493229368082e-13  -1.3994604435985136e-44  -3.9970646001830860e-35  -5.3333784766651462e-47  1.0788831994764453e-32  -4.5245085201921303e-46  -1.2962708557128110e-14  -1.7782496292795733e-41  1.3395614364246750e-21  5.5195725474417172e-38  -1.4389141892556076e-38  -3.7332736532398002e+02  -3.4816464459709881e+05  8.4532078506927636e-43  -3.1757505794449672e-15  -5.5646302913129737e-52  2.1939890292362183e+01  3.8514571522450111e-30  1.6365855617572989e-35  1.6880185252287720e-08  7.4918402976147740e-09  2.4764644093650053e-26  -2.4056754790123997e-36  -1.2532237375208243e-23  -6.6636722505379171e-13  -8.5509512294451551e-49  3.3428748290081944e-01  4.2325723696524070e-30  -5.0491659033004997e-30  4.1785895337124299e-13  -1.3745455847223981e-34  3.5554977529950638e-04  -3.1359245146555008e-23  -8.8009415336768523e-34  -1.3409437170288519e-30  -1.1334423579120616e-28  -1.2802286970038988e-43  -4.8841285136066292e-22  3.3040463848442036e-29  -5.2273285679511722e-17  2.6168811787693444e-31  5.7537255594387673e-34  -6.8334036692603730e-38  -1.6248155674418581e-39  -1.9938799791170266e-31  3.1046701970343780e-15  3.9316703334153297e-42  1.1862025220325437e-41  5.8012707654363045e-14  3.1576276831210705e-53  1.2042860566448255e-39  -1.8552719224367458e-50  -3.5010518457753490e-35  2.2546050071054769e-37  -3.0731125954071679e-42  -8.6818018322142007e-22  1.5966409430281646e-40  -8.8168877350885022e-45  -5.7876150066889797e-22  1.5993637611477492e-20  5.4774988943834444e-42  2.4430043151303444e-40  1.4998610448055368e-43  2.6445559375527040e-12  3.2395279001794558e-12  -8.5217410505955155e-16  1.7308360258136114e-42  1.9235313332258104e-06  8.8152717521137575e-11  7.9293458574325533e-25  -3.9620282537934050e-26  -1.6487477041258802e-38  1.1766313440602365e+00  5.4789315319107737e-33  2.0380741007651435e-36  -1.0278291840817356e-06  -3.4637484285668546e-19  -2.8052844303669390e+03  -6.7819226020010275e+00  4.3513450576560530e-49  -1.3524476226229526e-54  -2.1129329317052405e-57  7.0267222502711033e-58  2.0279632018111699e-18  2.1944885085480490e-43  -1.0647069381962150e-02  1.1666404108042280e-47  2.9669971818132036e-52  -1.0362607204153993e-37  1.6972920074565664e-29  -6.5655296832290946e-37  -2.2000797004201229e-24  1.6394737948135895e-38  -3.0143652094757253e-21  -2.0365333065694956e-40  -3.4936535883309564e-06  -3.1019620435887601e-06  1.1340438630062691e-05  -1.5185462154282817e-43  1.4002720502079373e-03  -8.0198517099138232e-13  4.2958750898168010e-05  -7.3828349107736051e-32  4.2680757716959224e-18  -1.1483294907512912e-15  3.1616081614455692e-33  -1.2555571313656599e-20  2.9997777939063328e-20  -2.5057274324173969e-23  3.0097334398525383e-17  -1.5992139814716879e-04  -8.6819256220971898e-03  -3.0406856688876727e-36  4.1445481303958457e-33  -2.9509337845608663e-30  -3.7772260976850576e-34  2.0630341680211439e-08  -2.8735887472016432e-43  -1.1041944154684979e-20  1.4771105839331483e-32  -2.3458981273781181e-17  5.8732089930772466e-10  8.8267686076631316e-26  -7.3392599006215671e-30  -1.7993707983484167e-21  -1.5567437022513148e-13  1.5557047991954610e-14  4.7663356491466227e-29  -3.5383347658713490e-38  -2.8904285432794912e-09  1.2964616428545524e-35  7.8843137609770805e-36  -3.1536782195688251e-22  3.8228970895433868e-24  -4.8439992257543496e-10  4.7971158869029294e-29  2.6992771961683355e-07  -5.7715367564798824e-41  5.9190668383865385e-24  4.7888761934190809e-25  5.8390222457580390e-39  -2.6482524749109809e-33  -6.6209704688153766e-32  4.0134864409465195e-35  4.9425039809981205e-33  4.4996216517909108e-33  -2.0396224277211725e-17  4.7599190703472615e-33  -8.7471009273243318e-26  2.6804099486036175e-18  1.7672130393979992e-27  3.0695480077589538e-28  -5.1808599513222622e-41  -2.4450687088757935e-21  9.9340525500112017e-28  2.4558849926538159e-29  -7.0829841171187890e-33  -3.1425052700593129e-33  -3.1513443492128300e-22  1.0733343605105068e-22  2.4103680177920368e-24  6.7361879839845761e-17  7.2952751803480585e-32  1.1642291331985824e-37  4.2275438717199261e-39  1.4237253977065562e-34  -1.2490082433430407e-32  4.2176435604645613e-35  -2.7824595093018903e-42  3.9343349678843078e-28  2.3511337708970478e-20  1.3762869077278169e-39  -2.7136412709504856e-41  3.2340134221847079e-35  1.1390704478794312e-25  3.2073354554349466e-20  -7.3059648873261746e-14  5.2681480231291535e-27  -1.5132462055879567e-28  -2.3633475075070085e-10  3.0992872840443122e-18  -3.2917907318765859e-44  -1.1600737511012843e-07  1.9710418145171932e-26  1.9994628378491646e-44  -2.7925091099557021e-44  1.7912161562124638e-49  -4.3291689087286131e-34  -5.3566369637442897e-39  -4.7462564147091676e-19  4.7600700628163554e-28  -3.3908518449470318e-24  -2.8092772315598677e-17  -2.7709534215224939e-36  -3.4183008927290572e-38  -1.1849669341865902e-26  9.2192620681433197e-33  1.5265323435654205e-16  -5.3679899803404777e-25  1.6235292866195554e-19  6.254452838938