<?xml version="1.0"?>
<VTKFile type="UnstructuredGrid"  version="0.1"  >
<UnstructuredGrid>
<Piece  NumberOfPoints="6486" NumberOfCells="12696">
<Points>
<DataArray  type="Float64"  NumberOfComponents="3"  format="ascii">0 2.5 0  0 0 0  2.5 0 0  2.5 2.5 0  1.25 0 0  2.5 1.25 0  1.25 2.5 0  0 1.25 0  1.25 1.25 0  0 0.625 0  0.625 0 0  0.625 2.5 0  0 1.875 0  2.5 0.625 0  1.875 0 0  2.5 1.875 0  1.875 2.5 0  1.770833333333333 0.7291666666666666 0  0.7291666666666666 1.770833333333333 0  0.9375 0.625 0  1.875 1.5625 0  0.642361111111111 1.163194444444444 0  1.341594827586207 1.883979885057471 0  0.46875 0.46875 0  2.03125 2.03125 0  0.3626104797979798 1.513178661616162 0  1.381740196078431 0.4564950980392157 0  0.9375 2.172619047619047 0  2.172619047619047 0.9375 0  2.096354166666667 0.4036458333333332 0  0.4036458333333333 2.096354166666667 0  1.684027777777778 1.163194444444444 0  0.3418803418803419 0.8693910256410255 0  1.642742622813391 2.162164207604464 0  1.275619849389031 0.8465650753054845 0  0.9136284722222221 1.434461805555556 0  1.732437511238546 0.3406962303960658 0  0.9714402568595876 1.029779313093998 0  1.52281746031746 1.485615079365079 0  2.1875 1.71875 0  1.06819722569879 0.2997236128493951 0  2.136114211309524 1.303478422619048 0  0.3125 0 0  0 0.3125 0  2.5 2.1875 0  2.1875 2.5 0  0.3200021620376328 1.192323085056694 0  0.6738456129277992 0.8304377375553881 0  1.757891808928991 1.861952730357003 0  1.5625 0 0  0.9375 0 0  0.3125 2.5 0  2.1875 0 0  2.5 0.9375 0  0 0.9375 0  0 1.5625 0  0.9375 2.5 0  2.5 0.3125 0  0 2.1875 0  1.5625 2.5 0  2.5 1.5625 0  0.7448220909826522 0.3003573636608841 0  1.027298850574712 1.871151477832512 0  1.331260495098891 2.197262878816185 0  1.207917681892289 1.582765010956622 0  0.4339993447432606 1.801186844743261 0  0.6337298768939392 1.443093039772727 0  2.049851190476191 0.6826636904761904 0  0.6584821428571428 2.219122023809524 0  1.89575676467455 0.9798457973793544 0  1.437570562095628 1.059380588255917 0  1.502090052505845 0.6987070896496241 0  0.2040860661083546 1.705323965099331 0  0.2083333333333333 0.46875 0  0.5070952039991439 0.2211150679997147 0  0.6916302856529919 0.5813591430410241 0  2.265625 1.953125 0  2.2265625 2.2265625 0  1.886424081252096 2.243391360417365 0  1.40625 0.202164758520858 0  0.2269345238095238 0.2269345238095238 0  1.152730869673694 0.5225850378741401 0  1.885631899587912 1.312095130148776 0  1.614808884009367 0.9049784971014416 0  1.890095442220658 0.5126535558463003 0  2.323168682795699 0.46875 0  2.268811725689575 0.2304742875213018 0  0.6002389442105756 1.967426444210576 0  0.1768313172043011 2.03125 0  0.2311882743104251 2.269525712478698 0  2.03125 0.176831317204301 0  2.280262553344767 0.6954945504579233 0  1.979219539285994 1.809922269642997 0  2.336309523809524 1.09375 0  1.09375 2.336309523809524 0  0.9314042474388009 1.662973812215543 0  0.1634067999087722 1.40625 0  2.337090640094896 1.40625 0  1.141616997467638 2.069311773587991 0  0.46875 2.338939559681489 0  1.542440307908715 1.734944797244472 0  1.556713687786879 1.956977865354753 0  0.8264238995344066 1.975424467820646 0  1.466326331454725 1.275271369760862 0  1.655675324257095 0.5444159974393489 0  0.3385416666666666 0.6479255698005697 0  0 0.78125 0  0.5236073939200119 0.984090461540625 0  2.091665741047893 1.519793517904215 0  1.71875 2.5 0  0.5356538886262603 1.623137930505009 0  0 1.09375 0  0.1932884281517095 1.015625 0  0.8569313582417669 1.2198915584249 0  0.8876981284879677 0.8329884081524883 0  1.115618488474214 0.7219586973356271 0  1.186950366204949 1.043465130075318 0  2.057459118787237 1.110823087309335 0  1.830651283878689 2.049810069572418 0  1.689107969301489 1.367247437031697 0  0.4921048768039656 1.298643370653124 0  0.8213975694444444 2.336309523809524 0  2.03125 2.5 0  1.049729400480002 1.283723261332814 0  1.308101375801673 0.6489479469700392 0  2.5 2.34375 0  0.4968777175037714 0.7562964879736076 0  1.40625 2.5 0  1.501347663534097 2.307027627307738 0  1.602813712048603 0.1926218191360736 0  0.8393082906308107 0.463778306132633 0  1.682663349152719 1.598471865581041 0  0.7774174680851571 1.560004941327907 0  1.554204170364662 0.3898593897892066 0  1.842184459051087 0.186443880058197 0  1.358107417651776 1.696381759610015 0  1.18859291992392 1.77598670078022 0  0.1875331222687418 0.7609599743339348 0  1.339536743965101 1.422080365801479 0  0.7788179348750389 0.9955343414928611 0  0.9062978492805438 0.1919636509126373 0  1.256007360640958 0.3160320559396114 0  1.09375 0 0  1.174986727221844 0.1594990293443933 0  2.34375 1.796875 0  2.318026474511116 1.589177949022232 0  2.34375 2.5 0  1.672742954892153 2.332882724550692 0  0.2683637361947215 1.874801596909639 0  2.174770749820102 0.5581009131310781 0  1.443279522965991 0.8870068372898454 0  0.3385416666666667 0.3571428571428572 0  0.78125 0 0  2.060421048269335 2.314363248763811 0  1.088078737088509 0.8967352118723447 0  1.087825368444708 1.454931510884769 0  2.018308232129541 0.8548495425854904 0  1.943987311736842 0.3246298523011434 0  1.71875 0 0  1.85337849796276 1.144833312386208 0  2.3486328125 2.1044921875 0  1.407588788651747 2.042968789119587 0  2.336309523809524 0.865366648092144 0  2.34375 0 0  2.5 0.15625 0  0.15625 2.5 0  0 2.34375 0  0.1638044648294291 1.242263417405867 0  0.356216654757926 1.032569427322806 0  0.3188217956111817 1.355736727000647 0  0.5924956460852111 0.36112522004736 0  0.6594216488965849 0.1603472116132387 0  1.841804599497131 1.72214349266521 0  0.15625 0 0  0 0.15625 0  2.115898634821499 1.894570904464496 0  0.7821877980253907 0.7129993435924866 0  1.003820447087786 0.4516053462784233 0  0.477562948779147 1.138333049293613 0  0.719493678605015 1.305655360135975 0  0.9772457618587566 2.020350128938537 0  0.8764738248887107 1.826219722709673 0  1.254787875123819 2.339010653832026 0  2.343597354852534 1.249982759769001 0  0.78125 2.5 0  0.46875 2.5 0  2.5 1.40625 0  1.09375 2.5 0  2.5 0.78125 0  2.5 1.09375 0  2.03125 0 0  2.5 0.46875 0  1.40625 0 0  0.46875 0 0  0 0.46875 0  0 1.40625 0  0 1.71875 0  0 2.03125 0  2.5 1.71875 0  2.5 2.03125 0  2.005424054645407 1.653223486966518 0  0.1538730573856537 1.559850281736677 0  2.33984375 2.33984375 0  1.166539506212474 1.922878979538754 0  0.3914885633949916 1.65887232812171 0  0.5795503163042564 1.766243562569382 0  0.399533125920212 1.946786875081388 0  0.7866324979014098 2.127719094551316 0  0.3654683023546834 0.1495701132219454 0  0.1527388747131078 0.6116379440619215 0  2.013737577140188 1.391056634712135 0  1.17635437372994 2.213329084238133 0  1.737118141866284 1.010577140843115 0  2.200707118087222 1.164723314085963 0  1.697018908736685 1.993548551451517 0  0.5387621649009668 0.6070503962352419 0  2.032805785855952 0.5330427622570983 0  1.082699501358059 1.667818725183932 0  1.503819781540653 0.5468420196858188 0  2.015409142866072 2.175941657590429 0  1.752057611265444 0.869642097111018 0  0.612251684107783 2.356045720700959 0  1.902817102342857 0.6607642211999982 0  2.159616561739693 0.7867739969338844 0  0.5120038350106624 2.197302352398502 0  1.888200216011548 1.919501662489862 0  1.495909909726654 2.16028358757309 0  0.489139876703609 1.443203008943564 0  0.8819175670410521 0.3301172743913011 0  1.882591144370812 0.8155965192707721 0  1.133979796994841 1.172526771862882 0  2.206217447916667 2.084147135416667 0  2.20361328125 2.36279296875 0  1.395746985657004 1.556054166359645 0  1.704383111516207 1.734750450338683 0  0.9575737847222222 2.36274223823052 0  1.035150984253136 0.1302833343179028 0  1.383966125325753 0.7651479963479179 0  1.64003252158672 0.6824316405528895 0  2.22550785055421 1.487078576356817 0  1.760964431499756 1.48495222505201 0  1.276460980673788 2.004207003584658 0  0.1341477688427096 1.828777507920502 0  1.542261434180652 1.155296658359034 0  1.334627911613854 0.9696897472490321 0  1.30794231473696 1.119420615785191 0  0.7028260459857245 0.4438906910721139 0  1.625757433094055 1.84268057552138 0  0.9818707849053143 1.165603626132254 0  2.0086489901463 1.243134585689553 0  1.934584460420609 2.374094051915812 0  1.798434376789567 2.38671361912528 0  1.206314791201715 1.382064292497919 0  0.6333752893366955 0.7023738550008095 0  0.7796219811205605 1.42573253164258 0  1.564399711917382 1.026040828857629 0  0.3385416666666666 0.4889012896825397 0  0.1041666666666667 0.390625 0  0.989112246382566 1.543537365516289 0  2.025724425454636 0.9846960595520872 0  0.6602885475034063 2.086117390485779 0  1.607130551925032 1.267198646640915 0  0.1317864544877056 0.8896173683400176 0  1.755387840017567 2.230364320056445 0  1.301540702984401 0.1216289692748247 0  1.433170657577442 0.3331052752740999 0  1.500459610550388 0.113513924782439 0  0.6494291520606965 1.029586599619295 0  1.010146149868299 0.794897284196169 0  0.3700844198238017 2.235390157870766 0  0.3360891767780704 2.36656279435396 0  1.876856241037701 1.437150669863757 0  1.778674102957329 1.245979347269706 0  0.5472829890977179 0.1005517127039925 0  0.4669074189005698 0.3416784232954367 0  1.472765289289269 1.850899166481903 0  1.555853593327178 1.608452097912802 0  0.6708955559113426 1.646561631116984 0  0.8164699620322933 0.5924479455478063 0  0.3167738989468366 1.758696809749795 0  0.2788007305565096 1.605499483471246 0  0.7821720982350511 0.181524936294752 0  1.376812251214195 2.313340247908297 0  1.785652202614777 0.5962261755537186 0  1.761467296310972 0.4679567244718574 0  2.2265625 1.8359375 0  2.3828125 1.9140625 0  0.5279531607054191 2.071552361614785 0  2.397573269551114 0.234375 0  2.383578172599618 0.3589298466020009 0  0.1024267304488855 2.265625 0  0.1164218274003825 2.141070153397999 0  0.2696857594953064 2.135405441512016 0  2.164961300137334 0.1375322943529536 0  2.137757548369486 0.2724194778647587 0  2.238873711826398 0.3626419179496562 0  0.1001414910226386 0.234375 0  0.2176339285714286 0.3478422619047619 0  0.2503620791333544 0.1061694061057066 0  2.336445461915368 0.1250451055247424 0  0.2154004640409726 2.3918124
[...]
<PointData  Scalars="f_16-3"> 
<DataArray  type="Float64"  Name="f_16-3"  format="ascii">2.1739504733440815e-04  -1.5325002649491427e-09  -1.7704258544282031e-10  2.5439823931434452e-04  -8.6778342403923027e-10  3.7735006057261696e-07  2.3744438083173202e-04  2.2645902357160729e-04  2.9207777669172300e-04  2.1381535172254791e-04  -1.3261657511485162e-09  2.1842981608310161e-04  2.2632909632648284e-04  -1.1028593976281785e-10  -4.8823979067791583e-10  3.8284312824986843e-05  3.7526496383779597e-04  1.0364188728009757e-07  2.4878409913578036e-04  2.2264138973570186e-05  1.0435002277245398e-04  4.9902884813977477e-04  4.2947312677476970e-04  1.3352911445555163e-04  2.8027227311851053e-04  2.2874190898432100e-04  2.3030453977620057e-08  2.3641292361914167e-04  8.3458471227559365e-08  -3.3480004323864784e-10  2.2573729727947198e-04  2.5003130051894500e-05  4.8681736925138523e-04  4.1075388648018155e-04  2.0874261170008553e-05  4.7792348812562417e-04  -4.8646530973900277e-10  3.4769322475709753e-04  2.6382399032414322e-04  5.8976091036113658e-05  1.3357001238778051e-08  5.5552145761575305e-06  -1.5419537507360230e-09  -2.1336052933405537e-05  1.3604694679166215e-04  3.6668470976226354e-04  2.4841441355562060e-04  5.1410969282548720e-04  3.4298739753338512e-04  -6.6591606319433489e-10  -1.0796112781355720e-09  2.1708865547005577e-04  -3.1200596989850740e-10  6.9197152172154164e-09  2.2630859349553941e-04  2.2646090459569487e-04  2.2017727922674584e-04  -1.5840954451976167e-10  2.2483492299478494e-04  2.9569592934812667e-04  5.7759431359808416e-06  2.1569333925230018e-07  3.0922424677579531e-04  3.0925345721982271e-04  4.8123060511107163e-04  2.2699580758417086e-04  3.0107626846119251e-04  4.2944973682978208e-09  2.2517234071509339e-04  1.1695638643740303e-06  4.4963325655272364e-05  6.8161973860796085e-07  2.2646556870769616e-04  1.2474047003019891e-03  1.9819641846155528e-07  8.4521137166393830e-05  1.1792354847678774e-04  2.7258164850721162e-04  4.0188371238506924e-04  -7.1695306444975149e-10  9.1066435461621498e-07  6.4312711704707146e-07  2.3960937318419886e-05  3.8819791448008459e-06  2.8913771475315059e-10  -2.1422423277844119e-10  -2.5869609498259645e-10  2.2774045994866811e-04  2.2597861101630607e-04  2.2368592459888449e-04  -3.9169352315199006e-10  5.7816691708128598e-10  1.8372068304511410e-04  1.8773943320587731e-07  2.3733748980827161e-04  3.5552468030843840e-04  2.2659581558482004e-04  3.9634503732311508e-06  2.8780967777531621e-04  2.2251207616222061e-04  4.0104818295916121e-04  4.3471402980328148e-04  2.4053136088360581e-04  1.4229301513784615e-04  1.0402660653318587e-08  8.8738425105473555e-04  2.2538859697043937e-04  5.7331939907476323e-04  3.0565702763306718e-05  3.4003598200911262e-04  2.3623948477575644e-04  2.2642184753127751e-04  2.3842140779691521e-04  5.5135255374386322e-04  1.9843138085331484e-04  1.6943400307779309e-05  1.5925016014448743e-04  1.6130039854718632e-06  3.8241629772607866e-04  8.6802534199555576e-05  2.8736053841414260e-04  2.2422768754807462e-04  3.8769807335481730e-04  4.8131978250572001e-04  1.3902666950285868e-06  2.0225152883140550e-04  7.2211944436398128e-04  2.5960409988204115e-04  3.2785779144027505e-04  -6.3429080456204422e-10  4.3314932768699686e-06  2.2824935481490798e-04  3.1949299569930106e-04  5.7088999637475780e-10  -4.9139933757352744e-10  4.5939916300676351e-04  4.2130432388519569e-04  3.6601380069672300e-04  3.5157455089157748e-04  5.4066257906378056e-04  1.2386653269928375e-09  2.4009345043698782e-09  -9.7032135584907045e-10  -8.0442366939520794e-10  4.4947712632217941e-05  1.6118062725921198e-05  3.1256321625217082e-04  3.7211341549550175e-04  2.2637385536483371e-04  -1.6764034303489293e-10  9.9996211788997306e-06  5.7025740927654303e-05  -1.1813162548314193e-09  3.7351164597930508e-04  1.0348295551768219e-04  4.9974783904873157e-04  8.7923502250819698e-08  -4.2710280577848406e-10  -5.7803002158936789e-10  7.7741026873144999e-06  1.5319660734120549e-04  3.9133020985104210e-04  6.6461141241790298e-09  -2.4094595186455028e-10  -1.7081640968079671e-10  2.1732285522553697e-04  2.2156238816693375e-04  2.2718892384897133e-04  3.2782735902825194e-04  2.3118402263782540e-04  5.6447921863699882e-06  3.5469066692306244e-09  2.1013337333776661e-04  -1.4774030236127331e-09  -5.4892705382231237e-08  1.5835980943693328e-04  1.5391662379010080e-04  7.9896339495404072e-07  3.6795678028776654e-04  4.4407021259131236e-04  2.5782946751677014e-04  2.7264759816312981e-04  2.5889771612733111e-04  9.0428389996239598e-07  2.1887492424714527e-04  2.1739122996479671e-04  1.5699806672591833e-06  2.2525144403043936e-04  4.3141873676756192e-10  5.5939961881108925e-08  -4.0171207970550226e-10  -1.4753293766797093e-10  -7.5638337509276786e-10  -1.4628704980988808e-09  1.4850976484088608e-04  2.2646348894254229e-04  2.2644157965247163e-04  2.2600060621342361e-04  1.6163263180660856e-05  7.9392129528636977e-05  8.9625941538590823e-05  2.2648667274704346e-04  2.6696858194936161e-04  3.4676287270793654e-04  2.2752032153172555e-04  2.3165865986043372e-04  2.2635271348634041e-04  2.2954996625991665e-04  1.8373267645506552e-08  5.7199871070581613e-04  2.0765856674850316e-05  2.6521804971176325e-04  4.8343596837138305e-06  9.5117528406575053e-07  4.1345961582333246e-04  3.4333832622198573e-04  -1.2091732583235270e-10  4.2894809307558588e-04  4.4930738486005710e-08  3.5128802668186001e-04  8.3475885535203152e-07  2.2233127225065153e-04  9.6486797273519492e-09  8.9392469512665326e-09  2.2502643656762490e-04  2.9986206812319526e-04  3.7670897594672335e-04  2.4780493480316257e-04  1.7511543838225161e-07  1.3627352758231842e-07  3.2930900817276473e-04  2.1407161453985109e-04  3.3404579276278439e-04  3.9622218261820669e-04  3.0642947283548023e-04  2.2635549733253829e-04  -8.8803353952618602e-10  3.9303879549419885e-06  1.4772960190722252e-07  1.3095634433210131e-05  1.1694806843342153e-04  3.5822289415065640e-04  2.2639657211441297e-04  4.9515693001636493e-05  4.0270399525722468e-05  1.3269426120371042e-04  1.1706183946100862e-05  4.0104197178472499e-04  4.6938140382739323e-04  7.6485691366252422e-06  3.9652624649290510e-04  3.8372169808921985e-04  4.3059383443864194e-04  3.6812349445658856e-04  3.9829894097396547e-04  1.6522877585081250e-05  5.4376735026903211e-04  1.4162996384081573e-03  4.4900551399894382e-04  4.7319101219623242e-07  2.2707088547532201e-04  7.3378178018196878e-05  2.3832105054032941e-04  4.0831423269391980e-04  -8.2390270650370359e-10  3.1934382154213092e-10  -7.0201900107139319e-10  6.0888646221250937e-04  7.5162296862202568e-05  2.2441615908862009e-04  2.2144656096875789e-04  5.3317788068195463e-05  2.7043337042207774e-05  -5.7277902314373635e-10  1.0826013963897912e-05  4.4594614194602423e-04  3.2076572819291974e-04  2.5551480118986367e-04  3.9698756509532296e-05  2.2654464869804127e-04  2.2667837152239270e-04  3.6721188223530398e-09  2.9096445818019582e-04  8.4564737709598992e-09  3.2376808152001876e-10  8.6991054419558169e-05  6.5988925655867744e-05  2.2613317678955744e-04  -1.9473712633407421e-10  -1.9785490495087248e-10  2.2369910002891850e-04  2.2539561590537483e-04  2.2543620390568354e-04  -3.1831540804960124e-10  -3.3001861347814215e-10  -2.7410975688767170e-10  -3.0997567091276910e-07  1.9909776506884009e-04  -2.2127102035003012e-09  -2.3077732816148769e-10  2.2042439959942954e-04  2.4447051407824308e-04  -5.9848457249898103e-09  -5.6638598287936290e-10  6.2826482977900056e-06  5.1005683196932343e-08  2.4601703486452149e-07  2.2615455476863284e-04  1.7410669450077762e-04  5.7781949733101646e-04  2.2623865218485579e-04  -4.4989485648767482e-10  -1.4635747738325838e-10  7.7733978443547953e-10  1.9494888992626481e-04  5.5131180893399487e-05  2.3500250745398096e-04  2.2717092879836207e-04  2.2601373249204674e-06  3.2417721346223969e-05  1.6294333827934096e-04  -4.1469857675013115e-10  6.5862305808784703e-04  2.8848935182293999e-04  3.2958040375110872e-04  1.1172075183783619e-09  -1.0636553807028085e-09  2.3749389800606719e-07  3.0407424748356412e-04  2.3244592792601043e-04  2.7951449204855002e-08  2.4600473485698860e-04  3.7614597834757807e-04  1.0115838947803943e-04  2.3663746424780081e-04  -3.4547808768974855e-10  2.3691991251524193e-04  2.2722006988546933e-04  2.2649073760299421e-04  4.6289552860503805e-06  3.3094966112279882e-06  5.0843673947805271e-04  -6.2020199228609463e-10  6.7827166791488681e-07  3.7814151739440458e-04  -5.2784582954364810e-10  1.3414977655985233e-05  4.2446421921596937e-04  1.0650462124797386e-04  2.2142800707298274e-04  5.3037902223181533e-04  6.3409186755033218e-04  5.5905282690339167e-04  1.0279099460945844e-03  6.0917346988030224e-10  2.2645595180270710e-04  2.2655522278654881e-04  1.1665497088245024e-06  2.3454563004754626e-07  2.5724783188314749e-04  2.2012570824078926e-04  2.6031007976049409e-04  5.9893235722558291e-05  1.2619278409440534e-05  1.7532315956032583e-07  3.7696621496414415e-04  -5.7695417986289550e-10  4.1605817540072174e-04  2.3883203467852025e-04  2.6295434316094408e-04  2.5466664158526052e-04  2.2646821866405069e-04  1.9953143700862136e-06  2.9407580539795875e-04  4.1002725138967062e-04  3.2295431796751112e-04  7.0713130139046023e-05  2.9051815921081112e-04  6.4759914971488503e-04  8.7823379797009180e-05  3.1453934193278240e-04  2.0836072603411780e-04  2.8878357899369277e-08  4.9438416069527940e-04  3.7489158985018202e-04  4.7676065133206148e-04  2.9421739880824640e-04  2.5293798741227364e-04  4.4750247515271499e-08  3.9416857504590919e-04  3.9705356470042767e-08  2.4436625116771116e-07  2.2807043514134272e-04  2.9727858845449097e-04  3.6880495113757330e-04  1.8275571166144095e-04  2.6170391084065860e-04  -5.5438687030566454e-10  3.3101125224775807e-05  5.1472745349750689e-04  7.3831752942282139e-04  2.2770571859256358e-04  1.9783243613662951e-06  4.0500188960703279e-07  4.3998539327771600e-04  2.9743800655556873e-06  3.2945015602107194e-04  2.5903966782516553e-04  6.8240981590545185e-04  -2.0181241624751927e-10  2.9128326423307599e-06  9.2221488930297863e-06  3.3332961243078385e-05  -2.7829696022328961e-10  2.2929640507974647e-04  2.3390769403976148e-04  5.2211810653232779e-05  6.9375098484311172e-04  4.9919145364370090e-04  2.1774442529823234e-04  3.9476764509271408e-04  4.2883221202257005e-04  2.4889795436598764e-04  3.7522224571091779e-04  2.9761097953862596e-04  2.7545522378732371e-04  2.3040570966461859e-04  2.1550692013430457e-04  3.6768222297444374e-04  3.2705677419825454e-04  -1.2397454218647276e-09  4.7894537012944916e-04  2.2191176081419779e-04  2.2422284411476354e-04  -3.8322037101750328e-10  -5.9709208607257763e-10  2.3085376614622539e-04  -7.6567861268301780e-10  4.1141480681208185e-04  -9.7473892358648684e-10  -1.2739945715300552e-10  2.2643963183385720e-04  2.0642208996558741e-04  -5.0047697398835664e-10  3.2082614865038255e-04  5.5691897732153555e-04  3.2265539893012763e-04  8.9920331154104510e-07  1.8959774780078688e-08  -2.7632979716183046e-10  4.5809780174556303e-04  2.2773474089004381e-04  3.3016389617350131e-04  1.0813327369293546e-04  1.4797269869558816e-08  2.2181457115423494e-04  2.9031745401678861e-05  7.8160925158074523e-04  4.7798705873434701e-04  2.3662068197117316e-04  4.4602484160895532e-04  6.7623359822337187e-08  2.3044492548362027e-04  -3.5272102586094531e-10  -3.7215781719056190e-10  2.4423471011622246e-04  2.2977493017184290e-04  4.8986799285079036e-04  7.1839433112043890e-09  7.0600977112574676e-04  -4.3748126304588462e-10  1.6802283037368986e-06  1.0134992294396948e-05  1.3390313901504216e-09  4.5829543362342372e-09  -2.8534676942629357e-10  4.4959486816071036e-04  4.0562784991296258e-04  4.6432914442029254e-04  4.2061688607839973e-09  2.1720149865211982e-04  3.9083345612892130e-04  3.3084227679161142e-04  2.2380757371970347e-04  3.9218626609133884e-04  3.1580848939755199e-04  2.1556956145103263e-05  1.9048436485928583e-10  5.1746752014520292e-04  2.2581478950229984e-04  3.0198080655912150e-04  5.0818689349445047e-09  6.1826775415986358e-05  9.7927200400912027e-06  2.0725095323458338e-09  8.4457204118738745e-06  1.0473150565561153e-05  4.0656460010557498e-04  2.2630493163622187e-04  2.5591848275953829e-04  1.6919918815449188e-09  2.3088242297798653e-05  2.1256971131434536e-04  -1.5025721056916850e-09  -1.3760161848199919e-10  -1.7157083287583943e-10  2.2721414019999804e-04  -9.6977564384569993e-10  2.2650605511731578e-04  2.2643103174281273e-04  1.5177012494019737e-06  3.8977868291589736e-04  1.2366222768551302e-07  3.4313241036099324e-04  4.3367749534239550e-06  4.3122073087828959e-04  3.8880874940064669e-06  2.2640450663235563e-04  2.2647734718148549e-04  2.1978931746984885e-04  2.2040155437531644e-04  -9.5472501596551426e-10  3.6105593031838008e-08  1.8550174047821745e-04  2.6430886272050218e-09  2.2640775217455883e-04  2.4701976925596363e-04  9.8092799725579262e-06  3.4946851272368619e-06  1.3390718442949561e-04  2.2601916698105731e-04  1.0516627513825109e-04  3.3620681464873594e-10  -8.8535268505021753e-10  8.4724696904257414e-12  1.2486324971057311e-07  1.7790315261780307e-08  3.4731825554738740e-07  3.9535122226300966e-05  7.6899707151134995e-05  2.3830447880530092e-05  -1.7529012054464975e-10  2.6324047539999143e-04  -2.7435817805561140e-10  2.5882465873279357e-04  3.0789165510564700e-04  7.2349662148707531e-06  3.9087813067387536e-04  3.5882861152549870e-04  4.4044891033559823e-05  1.4238661572279300e-04  2.1324613610875499e-04  1.7613000231544078e-05  2.3715394468092287e-05  -2.3374298964026028e-10  2.2495326355574964e-04  3.0211272821618250e-04  6.6281796182089136e-07  1.4484081351546189e-04  2.3305916322320682e-04  -2.7316143102999447e-10  1.8156319942173853e-05  4.0759936131344701e-04  7.7834027035175965e-05  3.5307376972696167e-04  -1.9463083112903100e-10  1.6063703311376787e-04  2.2615971579082009e-04  -3.7467802960263283e-11  2.2236844642249887e-04  -6.8268895530119564e-10  2.9198324937083245e-08  3.6541249652013568e-04  2.1174355781688510e-04  3.4373477067140251e-04  4.0272480002489082e-04  1.0464960714131884e-04  3.8424036087154656e-04  2.4786679597703793e-04  4.6529053900244038e-04  1.4078570999426931e-06  5.7019933460202388e-09  2.6595664695390275e-04  3.9945211808169282e-04  1.0257547989077998e-08  5.8887683734839220e-07  5.5161587352913060e-05  3.3558329837550782e-04  2.8355163146939825e-04  3.5307402884512978e-04  3.6641437690218223e-04  2.4191710738011998e-04  9.5809315549082012e-05  3.6573173802453403e-07  6.6349256072283525e-06  5.0554989041085523e-07  4.7944193466638727e-07  2.2743163948236870e-04  2.0272880873442974e-06  -1.0874762794210931e-09  7.1087648435740418e-08  3.4882307982079871e-05  1.4932679685679570e-06  8.5574441523395827e-08  1.9069180390009082e-08  4.2771749544427180e-04  4.9261903096050848e-04  6.6110650090537096e-05  2.3010998777583987e-04  5.7987537014039572e-05  2.8875410168458947e-04  5.1938612973182602e-07  -1.0296911180748922e-09  1.2993392652858789e-04  -2.3018494179548745e-10  1.6226333122777974e-04  4.0206437189705974e-04  3.4485266174793367e-04  5.4421111208921466e-05  1.5162215845002683e-04  2.5084559996475465e-06  2.8107145032534172e-04  2.4661703900526085e-04  -1.5138901520410577e-09  -1.9233818769334389e-09  2.1761025428760809e-04  -8.0962477484863920e-10  2.4856957970545104e-04  -2.7243927248511277e-08  2.2547881798857733e-04  -1.6959752032692750e-10  1.6779110733900553e-04  3.1807818117881339e-04  2.7274578741698678e-06  5.5879930517489381e-05  3.4277644532024264e-04  7.7797220941239696e-08  3.8533517414550763e-04  -1.4910346028487759e-09  -2.9471277785970675e-10  -3.7244129404813415e-10  5.2195636034828392e-10  8.3110566525552134e-07  8.4951918408477062e-04  2.2655767131470937e-04  2.3209609985096186e-04  2.3382682994367302e-04  2.8901120573354954e-04  3.3278534681940023e-04  -5.7150859888204172e-10  2.5835087271729060e-04  5.0881863883235742e-04  4.5288232694363199e-04  4.0638307646598334e-05  1.9270202443820793e-06  5.5820427958926321e-07  2.2554464151775024e-04  2.2653340453182661e-04  2.7162148936765588e-04  7.6264260750418809e-06  -9.1600822398842953e-10  3.4331571625105550e-04  2.1936736904379342e-04  3.8132472312537186e-04  2.1944605676479435e-04  2.1751572330753623e-04  2.4715010310749527e-04  2.2645508206061053e-04  2.1871002566157833e-04  1.0061891114778585e-05  -5.2703931095696680e-10  -6.2317008744718334e-10  1.4974689802847335e-07  7.4793833228947033e-07  3.1964919702099288e-06  2.2636961456791866e-04  2.2644842699892116e-04  2.2646293104133729e-04  2.3061105917406518e-04  2.2275298720758643e-04  -1.1294892055962101e-09  -4.4586025824382325e-10  2.2623220622310715e-04  2.1712891760311171e-04  -1.5307703185481235e-09  2.2337635725579007e-04  -1.6372925838275308e-10  -1.4090521765709443e-09  -7.1543329344411843e-10  -7.7279249018851576e-07  1.0307207303562502e-06  3.6121820398392438e-04  1.6853940456365509e-04  2.3465890924496567e-04  2.7961301757680178e-04  2.2646307765030301e-04  2.7638009882471800e-04  1.9945632190748993e-04  2.4747078937161588e-05  1.0468834256775448e-04  -1.5294496686750900e-10  3.9037317998988467e-08  2.8564736684517082e-04  4.1596574473107186e-04  2.2097169994830945e-04  2.2960480062341361e-07  2.4576731876195382e-04  1.2706177115857803e-04  5.6567749799668837e-04  2.6481852626263438e-04  5.5938196449196353e-05  -1.3841465798239568e-09  4.4230238244605892e-04  2.9394788205651883e-04  2.2608372758165546e-04  5.1738365229658009e-04  1.7288474140868915e-06  2.4453742339509781e-04  2.2652141275217137e-04  2.2646341669107118e-04  2.2649602655534044e-04  2.2675420723432331e-04  4.1447764075762004e-04  1.0553167306498090e-03  4.0257069495084320e-07  4.3299865612493686e-04  2.7841614859291231e-04  2.4919797171577404e-06  5.4364564947590745e-04  2.6267488307466888e-06  2.2663455930617147e-04  2.7284202788159691e-04  3.9906260922902329e-04  3.9526385922144245e-04  3.4875846141825019e-04  2.4794122508616884e-04  2.9472619036207753e-08  5.9607210778485451e-04  5.2548259771494532e-04  -3.9145388941870760e-10  1.0274021355650996e-07  6.6120305219158912e-04  3.0542918876548814e-08  2.4018015525793243e-09  4.1299284865693752e-04  1.1776457429876919e-05  5.0429518920422672e-05  4.8748988359572104e-05  4.1962600661922100e-05  2.8188293844410709e-05  2.3752742239324356e-04  2.4243341259391743e-04  4.0605432584630744e-04  2.8615852279575981e-05  1.5423893695118981e-05  2.2816027067599802e-05  1.0217407245497342e-05  2.2660681323457150e-04  2.2647224150703030e-04  3.1905532147827689e-04  2.2847452470177660e-04  8.1732916043361550e-06  2.2661631209585129e-04  2.2635245443264524e-04  2.9774077527048936e-04  2.2313473804838975e-05  2.1633938798924421e-08  3.3501692620826930e-09  2.2587530692860656e-04  3.1120435133566031e-04  2.2746904954092488e-04  2.3041032429530641e-04  2.2735834906272012e-04  1.4297760479934824e-04  -3.0492268843714398e-10  2.4793517795100643e-04  2.6157823423501522e-04  2.2491967579413481e-04  2.2515887347493023e-04  2.2421271899738374e-04  3.5916986063518389e-04  1.8842458416825722e-04  -5.8914235912698889e-10  1.8866497952610696e-05  2.3809926354491941e-09  6.3181309517384771e-06  3.7998387159114200e-04  3.4545450251883983e-04  2.3021645546647537e-04  1.0606733657890086e-04  -4.1002825776322022e-10  1.7625560183783472e-04  -7.5881171671582196e-10  3.8829754915892061e-04  7.2981225683633631e-04  -4.6070558038752410e-10  3.0928790999818731e-04  3.8259769509413528e-04  7.7195468944589183e-05  4.9302473354072399e-09  2.1918135903447656e-04  2.3633701961859303e-04  4.4067353510277572e-04  1.6864700918022398e-04  2.5751104433842224e-04  4.2733427864534229e-04  3.9964872021381860e-04  2.3647855553750609e-04  -2.2578310494802048e-10  1.4684308357716107e-07  4.7023705184966993e-04  2.6951620761504291e-04  2.6349556319725596e-04  2.2391360082982831e-04  2.2018947264409314e-04  2.7278319589023693e-10  2.1890313815066850e-04  8.1659466630326364e-09  -2.5557078889892953e-10  3.6100257795475336e-04  2.2568310999693031e-04  -6.6731493428121872e-10  2.9510955301068645e-04  -3.5865024848349812e-10  4.26616463369268