<?xml version="1.0"?>
<VTKFile type="UnstructuredGrid"  version="0.1"  >
<UnstructuredGrid>
<Piece  NumberOfPoints="6486" NumberOfCells="12696">
<Points>
<DataArray  type="Float64"  NumberOfComponents="3"  format="ascii">0 5 0  0 0 0  5 0 0  5 5 0  2.5 0 0  5 2.5 0  2.5 5 0  0 2.5 0  2.5 2.5 0  0 1.25 0  1.25 0 0  1.25 5 0  0 3.75 0  5 1.25 0  3.75 0 0  5 3.75 0  3.75 5 0  3.541666666666667 1.458333333333333 0  1.458333333333333 3.541666666666667 0  1.875 1.25 0  3.75 3.125 0  1.284722222222222 2.326388888888889 0  2.683189655172414 3.767959770114943 0  0.9375 0.9375 0  4.0625 4.0625 0  0.7252209595959597 3.026357323232324 0  2.763480392156863 0.9129901960784315 0  1.875 4.345238095238095 0  4.345238095238095 1.875 0  4.192708333333333 0.8072916666666664 0  0.8072916666666665 4.192708333333334 0  3.368055555555555 2.326388888888889 0  0.6837606837606839 1.738782051282051 0  3.285485245626782 4.324328415208927 0  2.551239698778062 1.693130150610969 0  1.827256944444444 2.868923611111111 0  3.464875022477093 0.6813924607921316 0  1.942880513719175 2.059558626187995 0  3.04563492063492 2.971230158730159 0  4.375 3.4375 0  2.13639445139758 0.5994472256987903 0  4.272228422619047 2.606956845238095 0  0.625 0 0  0 0.625 0  5 4.375 0  4.375 5 0  0.6400043240752655 2.384646170113389 0  1.347691225855598 1.660875475110776 0  3.515783617857982 3.723905460714006 0  3.125 0 0  1.875 0 0  0.625 5 0  4.375 0 0  5 1.875 0  0 1.875 0  0 3.125 0  1.875 5 0  5 0.625 0  0 4.375 0  3.125 5 0  5 3.125 0  1.489644181965304 0.6007147273217681 0  2.054597701149425 3.742302955665024 0  2.662520990197781 4.39452575763237 0  2.415835363784578 3.165530021913244 0  0.8679986894865213 3.602373689486522 0  1.267459753787878 2.886186079545454 0  4.099702380952381 1.365327380952381 0  1.316964285714286 4.438244047619047 0  3.7915135293491 1.959691594758709 0  2.875141124191255 2.118761176511833 0  3.00418010501169 1.397414179299248 0  0.4081721322167092 3.410647930198662 0  0.4166666666666666 0.9375 0  1.014190407998288 0.4422301359994293 0  1.383260571305984 1.162718286082048 0  4.53125 3.90625 0  4.453125 4.453125 0  3.772848162504192 4.48678272083473 0  2.8125 0.404329517041716 0  0.4538690476190476 0.4538690476190476 0  2.305461739347387 1.04517007574828 0  3.771263799175824 2.624190260297553 0  3.229617768018734 1.809956994202883 0  3.780190884441317 1.025307111692601 0  4.646337365591398 0.9375 0  4.537623451379149 0.4609485750426037 0  1.200477888421151 3.934852888421152 0  0.3536626344086022 4.0625 0  0.4623765486208503 4.539051424957397 0  4.0625 0.353662634408602 0  4.560525106689535 1.390989100915847 0  3.958439078571988 3.619844539285994 0  4.672619047619047 2.1875 0  2.1875 4.672619047619047 0  1.862808494877602 3.325947624431087 0  0.3268135998175443 2.8125 0  4.674181280189791 2.8125 0  2.283233994935276 4.138623547175983 0  0.9375 4.677879119362977 0  3.08488061581743 3.469889594488945 0  3.113427375573758 3.913955730709506 0  1.652847799068813 3.950848935641292 0  2.932652662909449 2.550542739521724 0  3.311350648514189 1.088831994878698 0  0.6770833333333333 1.295851139601139 0  0 1.5625 0  1.047214787840024 1.96818092308125 0  4.183331482095785 3.03958703580843 0  3.4375 5 0  1.071307777252521 3.246275861010018 0  0 2.1875 0  0.386576856303419 2.03125 0  1.713862716483534 2.439783116849799 0  1.775396256975935 1.665976816304977 0  2.231236976948428 1.443917394671254 0  2.373900732409897 2.086930260150635 0  4.114918237574474 2.221646174618671 0  3.661302567757379 4.099620139144836 0  3.378215938602977 2.734494874063393 0  0.9842097536079312 2.597286741306247 0  1.642795138888889 4.672619047619047 0  4.0625 5 0  2.099458800960004 2.567446522665629 0  2.616202751603346 1.297895893940078 0  5 4.6875 0  0.9937554350075428 1.512592975947215 0  2.8125 5 0  3.002695327068194 4.614055254615477 0  3.205627424097207 0.3852436382721472 0  1.678616581261621 0.927556612265266 0  3.365326698305438 3.196943731162083 0  1.554834936170314 3.120009882655813 0  3.108408340729323 0.7797187795784133 0  3.684368918102174 0.3728877601163941 0  2.716214835303553 3.39276351922003 0  2.37718583984784 3.551973401560441 0  0.3750662445374837 1.52191994866787 0  2.679073487930202 2.844160731602957 0  1.557635869750078 1.991068682985722 0  1.812595698561088 0.3839273018252746 0  2.512014721281916 0.6320641118792227 0  2.1875 0 0  2.349973454443689 0.3189980586887866 0  4.6875 3.59375 0  4.636052949022233 3.178355898044465 0  4.6875 5 0  3.345485909784306 4.665765449101383 0  0.536727472389443 3.749603193819277 0  4.349541499640203 1.116201826262156 0  2.886559045931982 1.774013674579691 0  0.6770833333333334 0.7142857142857143 0  1.5625 0 0  4.120842096538671 4.628726497527622 0  2.176157474177018 1.793470423744689 0  2.175650736889416 2.909863021769539 0  4.036616464259081 1.709699085170981 0  3.887974623473683 0.6492597046022868 0  3.4375 0 0  3.70675699592552 2.289666624772415 0  4.697265625 4.208984375 0  2.815177577303495 4.085937578239174 0  4.672619047619047 1.730733296184288 0  4.6875 0 0  5 0.3125 0  0.3125 5 0  0 4.6875 0  0.3276089296588581 2.484526834811734 0  0.712433309515852 2.065138854645612 0  0.6376435912223634 2.711473454001295 0  1.184991292170422 0.7222504400947201 0  1.31884329779317 0.3206944232264773 0  3.683609198994263 3.44428698533042 0  0.3125 0 0  0 0.3125 0  4.231797269642997 3.789141808928991 0  1.564375596050781 1.425998687184973 0  2.007640894175573 0.9032106925568466 0  0.955125897558294 2.276666098587227 0  1.43898735721003 2.611310720271951 0  1.954491523717513 4.040700257877075 0  1.752947649777421 3.652439445419346 0  2.509575750247638 4.678021307664052 0  4.687194709705067 2.499965519538002 0  1.5625 5 0  0.9375 5 0  5 2.8125 0  2.1875 5 0  5 1.5625 0  5 2.1875 0  4.0625 0 0  5 0.9375 0  2.8125 0 0  0.9375 0 0  0 0.9375 0  0 2.8125 0  0 3.4375 0  0 4.0625 0  5 3.4375 0  5 4.0625 0  4.010848109290813 3.306446973933037 0  0.3077461147713075 3.119700563473354 0  4.6796875 4.6796875 0  2.333079012424948 3.845757959077508 0  0.7829771267899832 3.317744656243421 0  1.159100632608513 3.532487125138763 0  0.799066251840424 3.893573750162776 0  1.57326499580282 4.255438189102632 0  0.7309366047093668 0.2991402264438908 0  0.3054777494262156 1.223275888123843 0  4.027475154280377 2.78211326942427 0  2.35270874745988 4.426658168476266 0  3.474236283732569 2.021154281686229 0  4.401414236174444 2.329446628171927 0  3.39403781747337 3.987097102903034 0  1.077524329801934 1.214100792470484 0  4.065611571711903 1.066085524514197 0  2.165399002716117 3.335637450367864 0  3.007639563081306 1.093684039371638 0  4.030818285732145 4.351883315180857 0  3.504115222530889 1.739284194222036 0  1.224503368215566 4.712091441401919 0  3.805634204685714 1.321528442399996 0  4.319233123479386 1.573547993867769 0  1.024007670021325 4.394604704797005 0  3.776400432023095 3.839003324979723 0  2.991819819453308 4.320567175146181 0  0.9782797534072181 2.886406017887129 0  1.763835134082104 0.6602345487826022 0  3.765182288741625 1.631193038541544 0  2.267959593989681 2.345053543725764 0  4.412434895833333 4.168294270833333 0  4.4072265625 4.7255859375 0  2.791493971314009 3.11210833271929 0  3.408766223032414 3.469500900677365 0  1.915147569444444 4.725484476461039 0  2.070301968506271 0.2605666686358055 0  2.767932250651506 1.530295992695836 0  3.280065043173439 1.364863281105779 0  4.45101570110842 2.974157152713635 0  3.521928862999512 2.96990445010402 0  2.552921961347576 4.008414007169315 0  0.2682955376854191 3.657555015841003 0  3.084522868361304 2.310593316718068 0  2.669255823227708 1.939379494498064 0  2.615884629473921 2.238841231570381 0  1.405652091971449 0.8877813821442277 0  3.25151486618811 3.68536115104276 0  1.963741569810629 2.331207252264507 0  4.017297980292599 2.486269171379106 0  3.869168920841219 4.748188103831625 0  3.596868753579134 4.77342723825056 0  2.41262958240343 2.764128584995838 0  1.266750578673391 1.404747710001619 0  1.559243962241121 2.85146506328516 0  3.128799423834764 2.052081657715259 0  0.6770833333333333 0.9778025793650794 0  0.2083333333333333 0.78125 0  1.978224492765132 3.087074731032578 0  4.051448850909273 1.969392119104174 0  1.320577095006813 4.172234780971559 0  3.214261103850064 2.534397293281829 0  0.2635729089754111 1.779234736680035 0  3.510775680035133 4.460728640112889 0  2.603081405968802 0.2432579385496493 0  2.866341315154884 0.6662105505481998 0  3.000919221100777 0.2270278495648781 0  1.298858304121393 2.05917319923859 0  2.020292299736597 1.589794568392338 0  0.7401688396476035 4.470780315741533 0  0.6721783535561408 4.733125588707921 0  3.753712482075402 2.874301339727514 0  3.557348205914658 2.491958694539413 0  1.094565978195436 0.2011034254079851 0  0.9338148378011396 0.6833568465908735 0  2.945530578578538 3.701798332963805 0  3.111707186654356 3.216904195825605 0  1.341791111822685 3.293123262233967 0  1.632939924064587 1.184895891095613 0  0.6335477978936732 3.517393619499591 0  0.5576014611130192 3.210998966942492 0  1.564344196470102 0.3630498725895039 0  2.75362450242839 4.626680495816594 0  3.571304405229554 1.192452351107437 0  3.522934592621944 0.9359134489437148 0  4.453125 3.671875 0  4.765625 3.828125 0  1.055906321410838 4.14310472322957 0  4.795146539102229 0.46875 0  4.767156345199235 0.7178596932040019 0  0.2048534608977711 4.53125 0  0.232843654800765 4.282140306795998 0  0.5393715189906129 4.270810883024032 0  4.329922600274667 0.2750645887059072 0  4.275515096738972 0.5448389557295173 0  4.477747423652795 0.7252838358993123 0  0.2002829820452772 0.46875 0  0.4352678571428572 0.6956845238095237 0  0.5007241582667088 0.2123388122114133 0  4.672890923830735 0.2500902110494848 0  0.4308009280819452 4.783624996516437 0  2.104871305393774 4.438653689007242 0  0.2274454167838428 0.2274454167838428 0  3.446466574593436 0.4359605369011901 0  2.12354112127588 1.217588426759619 0  2.309175236825235 0.7888355970690434 0  2.556178570281936 1.054299163237582 0  0.578683248637
[...]
<PointData  Scalars="f_16-3"> 
<DataArray  type="Float64"  Name="f_16-3"  format="ascii">-4.7433480631566526e-52  -7.7123834084045185e-05  -1.8886156247994161e-52  4.5648098799761948e-76  -7.0995291368639069e-25  -1.8451318108318496e-60  -5.0686644972864686e-61  2.5163888594277674e-23  -1.7870871349331110e-33  -3.0918355744428051e-11  -1.0398437148240491e-13  3.5683185540578160e-56  -1.7249507409735383e-38  3.8999542415804193e-58  6.6267659842419193e-38  2.4401109390619902e-68  1.9294960859411335e-66  5.2959874240651997e-40  4.0284896365356311e-39  2.8420793833398484e-22  -6.3550976165689608e-50  2.7822623145241150e-23  -9.0274467264421866e-47  -8.4938216226851152e-11  4.3183022549853776e-62  -1.5313462983101291e-30  5.9443652733221466e-31  -5.1780482476564753e-48  -1.8592184031744835e-53  -1.3347872933561133e-47  -1.0840384507287772e-45  4.1091508910686021e-41  1.6350364996685164e-15  -1.4543325167728758e-57  5.0939574692213168e-30  8.2640857295767741e-31  3.7399720627969970e-39  -1.6417401934924477e-26  1.7735238581113926e-42  3.6141292679222530e-58  4.9281677783243876e-23  9.6419167650381333e-53  -4.3381827147683942e-09  -1.7910827941966886e-04  -2.9750299845676001e-72  1.6610649954320561e-71  1.4284406767892163e-22  6.0526962819486333e-19  2.4561824666438893e-52  4.3083759084701126e-30  -1.2589788678633902e-19  -7.0662648387121248e-55  9.2468784789136291e-45  2.3934722400885683e-58  -4.9760183080804571e-16  -1.5505271970884290e-31  -1.0280889260851798e-56  1.3951903031255871e-53  -3.4341752865276584e-45  -3.3572704412715751e-62  3.9680414069420047e-63  5.7071154407332719e-17  -5.9468721363107299e-43  9.6095474787252519e-54  -1.0211465695025114e-38  2.6661020955056475e-39  1.1736776644202515e-29  1.7837441097854564e-46  1.6419555435003928e-50  -7.7372675615693637e-46  3.8636886320099176e-36  -3.7175893491708166e-35  -5.8938061177662318e-37  -5.7364199578186952e-07  -1.0123293901655367e-11  -4.3074980216750004e-16  -6.3337694081730864e-64  -1.8951952850703198e-67  6.3622216223901822e-62  -1.3417894498113259e-30  -3.0756861301805459e-05  -2.2379453221020112e-25  4.3200567084283703e-48  -8.7193510684927252e-38  -1.1348374450570474e-42  3.0832672806124972e-52  -1.2366371855030456e-49  1.3468915871839473e-43  -1.0455478962172979e-43  -1.8209511643091028e-48  1.0688080180633299e-42  1.9166664051227508e-54  1.5880815351121900e-56  4.4799594838531141e-55  -9.9905511754552899e-54  5.2933143386880522e-37  -9.4240663320745616e-28  1.4339102097592552e-58  3.9351245653889151e-49  -4.6758695041197853e-52  4.5374796121222642e-48  -2.2934830337407702e-51  -2.3731763486745150e-43  8.7908652215386975e-41  7.2387364320594867e-38  -9.8160604930478583e-13  -7.2168951170507933e-14  -1.1417651796971252e-18  -3.3704151640112541e-54  -6.7845623125165597e-65  -5.1718359454564967e-36  2.9170837585203825e-20  3.0059747058448320e-17  -2.8016482329022348e-26  2.7203289377295404e-22  -1.7422616329352717e-26  2.4002810419595913e-30  -1.0106864465619506e-50  -1.8698211476678607e-56  -2.5940778119805900e-43  -9.5581906014446165e-27  2.0780057348130202e-52  1.7217019835258283e-67  -7.2770508696249176e-31  3.0263228416767105e-30  7.6850681540457995e-75  -3.4778871827734637e-15  -4.2200782469400115e-62  4.0550776827079563e-57  3.6108428682253830e-33  7.2025126608265542e-18  4.3419082327105850e-47  -7.7932650974953905e-33  -1.4703617343353854e-35  -3.5810626921500912e-39  6.2836385648647270e-44  4.5975582011012910e-43  1.6819824270916063e-11  8.2613936308414178e-39  -5.8296135273685122e-23  -1.0339493318017315e-20  3.2894420178607812e-29  1.1961241418360912e-22  -1.5935278187653588e-25  -1.1597430552918595e-62  1.1796771159297237e-60  -1.2321013359034906e-74  1.9639409225952810e-61  -1.5771173138733222e-40  -3.9648746580337636e-50  -2.3319452490702137e-33  2.3863541784973914e-09  -4.8595772943479568e-17  5.4950212224679490e-65  -1.2895101334326686e-26  -6.3890111053039938e-34  6.4277985831301762e-48  -5.1869129053814723e-43  2.5742498255757702e-34  4.4067664606995489e-44  5.1877055646079780e-67  2.1519388754009230e-50  1.7664952240747033e-54  2.4923090721151763e-48  5.8624517358391444e-53  -3.4982674361707848e-53  -4.6925832731316899e-49  -5.0932617276724402e-24  6.1746761404703688e-19  -4.1791469063504912e-26  2.3269079382560260e-12  -1.8976697960696330e-14  8.1396425849943380e-52  -1.2905868134232813e-05  3.3063772457601684e-03  4.5035578169578727e-59  9.9917143278765789e-20  2.9307581900176172e-22  -1.6869818685263083e-23  -3.9419933657218092e-27  -4.7447586150301534e-46  -4.7198556582918739e-40  9.2409502987449496e-57  -2.1771448526396833e-57  -5.8443898273487139e-55  1.0662369795259179e-55  -1.5122187367648715e-62  -1.4154620132081520e-57  1.5312534009344981e-58  5.3372378390767988e-59  -4.9205380209298868e-41  1.6248127043578141e-55  3.7751754035474360e-27  -3.7118775214602016e-10  2.3069741690790224e-07  -8.3573416831897691e-28  -1.6049305302123158e-34  2.8740740162292588e-42  1.2671037601650146e-64  -3.5608916203577059e-69  1.6319451709376304e-53  -1.8085422404206280e-31  -5.4572777281211419e-72  5.5930694061094318e-46  2.3065055514923444e-35  -1.0036917870748834e-38  5.5651162046000704e-42  -2.4596562771256394e-48  1.5749415663339891e-08  1.1638326867594658e-08  2.4423545445065217e-52  7.3790503071454090e-53  2.1739269843614318e-40  1.5202809063974323e-51  -1.4662703868096221e-53  6.9552125247139172e-15  3.9498740038052101e-47  -1.9038635102291841e-38  7.4969100429141740e-34  -1.3469430617099852e-63  -5.5741252824669123e-41  2.2399046140569994e-52  -1.5563498692523295e-43  6.4990485107580264e-50  4.7342930030275124e-48  1.2190712124202605e-55  -1.4086464893800027e-54  4.2649481742573697e-30  -3.5568897872278169e-19  1.7255148215495509e-43  -2.8124217848478499e-31  -4.4617660886461386e-65  -5.0494245109383853e-68  -6.9628345293770559e-43  1.8765236874405017e-49  -3.9520474965525556e-53  1.0143192783925325e-22  2.6542563611551549e-32  3.0716304253977294e-38  -3.0170728466381764e-56  2.4939569364056564e-47  -5.4095385807843746e-49  -2.4868625574157550e-39  1.0257382265466683e-38  -3.7273768226664609e-32  -5.6478542985821120e-34  -2.3063017196306310e-15  -1.8597122218929821e-50  1.9429992441375375e-28  -1.1285949609166675e-48  -4.5465184242377615e-64  -1.9971848955830603e-64  1.7226180251564268e-36  7.1605510187377750e-16  -3.6681533116354193e-30  -9.8565587480200335e-38  1.8863141285034498e-08  -2.8206909891972953e-06  -4.4497204759320290e-34  8.5636374561541949e-49  1.4469957192768505e-45  1.7766492713631290e-41  6.2094674507086866e-15  -2.8371287487179647e-59  -1.3899458654329612e-27  -1.6646350287751407e-32  -8.5523991236469586e-31  2.5775488678371576e-21  1.0267407197676934e-23  9.9945224580608087e-51  -1.3545655651679216e-52  -2.0128414940717698e-49  7.4980400121309796e-45  7.9698543695553745e-12  5.4921439106810498e-11  1.7732249105722294e-48  1.1133266766684617e-44  -6.4588291673604792e-35  3.5423089707720658e-18  -7.7274062762014664e-38  6.7357220352265811e-33  -1.8804987359958849e-17  -2.4331317585350004e-57  -2.2747979523700875e-40  -7.6038232248681341e-42  1.4331623684276117e-61  1.2832438833679084e-65  -9.0029895346146670e-46  5.2317926535040588e-51  5.0622972788219580e-53  1.2174271227431132e-47  -4.1318933548534182e-45  4.3388174146818424e-47  9.6758682970476671e-46  -1.0022949584553291e-46  7.7871572658393665e-49  8.4404356309377045e-03  -2.6459353065006825e-05  -4.6044250433265268e-06  -1.5572903834264984e-48  -6.1110957582545112e-52  -5.4476609255826833e-51  -1.0788844606568902e-03  1.3741223065797036e-37  1.8548033168828128e-23  -2.7172166842373113e-25  -2.9208728176779448e-28  -1.6857697302340338e-43  1.4066799148498927e-44  -1.1301759995611243e-24  -6.5643201094863037e-41  -4.5447775687017972e-40  1.5339414491938824e-55  -9.1670026194889796e-57  -2.4882274147185814e-70  -4.0654577754207961e-14  -9.7466625739426925e-42  -7.9206933697883483e-41  -8.7881733640763415e-36  -2.6240327885681316e-57  -4.8906053174425915e-42  2.9265454390600152e-41  4.6497014315398384e-17  -5.1205780525346413e-36  1.5720821607700627e-39  1.9187994193904540e-49  3.0494081230436223e-19  6.0495159864807985e-55  -7.1345102360844985e-51  -9.5630892146245547e-21  8.0970313694661394e-58  1.3094042964033535e-11  -1.0125314706381810e-26  -4.1246773407937484e-57  3.3782860566641505e-60  3.2502743593925602e-44  -3.7543895826344254e-57  -6.2540769481407418e-29  -7.0430381631532427e-27  -2.1038896716085577e-60  -3.0130230229198611e-55  3.2266736069318375e-25  -8.3289402574359807e-35  -9.4547770172087926e-39  4.8248421553585423e-60  1.8787774656139618e-37  -5.9654948758410987e-63  2.8395723152851496e-54  -3.0322057862857078e-36  6.5193527072732470e-54  -2.8237991461764510e-29  -1.1182886427910528e-12  4.7753045233189902e-11  -5.3339811473422081e-09  2.4406139801920407e-38  -1.5387911150824931e-33  -1.5223822327889220e-21  6.4354148040386050e-60  -8.1330512717179382e-58  7.1276638951994015e-59  -4.2987622634302044e-51  -3.1503846614759940e-74  4.7321570875090934e-52  4.2329861593697571e-54  7.5809227216990134e-31  -1.8719032610903554e-68  1.6118380465747693e-35  3.2432622434217690e-56  -7.5634381118658132e-45  3.0785921260821261e-43  -3.4001225254134519e-37  2.1411730488728218e-29  -5.9959673259859657e-10  -1.2035377063145766e-64  -6.8674001468867969e-45  1.2310336600770861e-29  3.7637810765478958e-30  -3.9370114634409720e-59  2.6933432019290461e-19  -1.7139599489661817e-20  -4.6778468975498655e-20  -6.0098536263287285e-26  -1.0231618934353222e-45  9.6899384548287750e-29  2.1754311087329874e-41  -3.5647482312715246e-36  3.8938994062313112e-47  6.5506069307955672e-48  -1.4700551080695778e-54  -2.8755939402167991e-33  -2.1573739075713746e-28  5.0545849390528153e-14  1.9456113113306233e-50  -2.3719816656552693e-15  1.8605859481347462e-23  -1.1115592420541134e-62  1.0716357493151137e-39  -4.0184170784707566e-37  2.2544808598689001e-60  -7.1268197784470081e-31  -2.5402960562962588e-08  2.3686499925552324e-18  -2.9671005614739478e-47  -3.4361126596765786e-51  -6.8441906051912775e-39  4.8525149449233334e-50  1.3387914172874147e-59  2.3492276824942707e-32  -3.2463709883593132e-17  2.5929349848231920e-50  -1.5722024197435722e-26  1.7694330835423793e-28  9.4315759578296576e-28  1.4241788017076475e-49  -1.4537325583260032e-36  9.2986390328491580e-33  -3.0425289720467481e-46  -3.8363896435365897e-13  -3.5451836657845783e-21  1.1793475216779092e-55  3.9447141303579276e-32  -1.1896475087527281e-48  -9.4692712451886937e-55  -9.0208933557359781e-58  -1.0658485596417479e-28  8.9803596648847526e-25  1.3924769821308177e-40  -5.3226851420006096e-49  -5.5350928958488681e-57  4.4843973061227502e-58  5.8969010978207087e-16  4.9088793041193504e-36  -2.4684171664497533e-56  -6.4374723089838144e-51  1.9178887760104057e-45  2.0890531143314202e-27  -2.7006483889828648e-44  1.5770692477005602e-28  -3.6556580025748362e-52  2.4111857642335163e-17  -4.7115287890059555e-53  -7.0727940367755600e-38  -7.4662864007354601e-28  9.1445351188133518e-41  -2.9380937924527572e-71  9.9575693723955579e-21  7.5968358989988324e-48  8.2792183982178697e-33  2.3879055792296609e-20  -5.2337135622852431e-47  3.3953319006855666e-40  5.3678268505928995e-20  -3.7650958686576514e-55  2.3786547259331224e-65  7.6197703932934512e-53  -4.2375543168262032e-56  -2.1624747817315253e-23  -3.2519054976259259e-14  1.2878360654108493e-33  2.7367912615159036e-14  -6.7245320997790999e-47  1.1245113753255817e-34  2.1135058749916250e-24  -1.2882172525743050e-42  2.3291368040624368e-44  -2.8708676856525367e-28  -1.3026775207429447e-50  2.9555125888916127e-18  -4.0443861320445865e-36  -1.0193496992414603e-10  3.6846289711241420e-41  -1.7702631404059645e-17  -1.4554112921792045e-19  -3.5737912027102876e-25  -2.3232653942448921e-30  2.9794010286115467e-29  -1.2185539178287471e-43  -9.3093544767304842e-46  -2.2483408990628632e-41  -3.2913661640838912e-10  8.4619809219607749e-56  -1.0962637203273014e-63  -2.2647871061233511e-66  4.9667655269399605e-51  -3.0408703990477991e-25  -4.7168454692018343e-63  8.5541021521877602e-17  -6.5713029688411216e-23  8.4750741567229074e-25  1.4742233779312579e-47  -7.0911716272495371e-32  -2.4732101042512803e-32  -4.5506647404633511e-56  5.0708910704712734e-37  -1.6615207808572846e-58  5.4512992922771691e-58  9.5874614577788426e-47  -8.5664950924218561e-59  -6.0671621877638854e-42  1.2704598896672368e-64  1.2881212606737363e-44  5.0126842421784207e-39  1.1302660792205594e-32  -1.0991636806099655e-08  -1.7006610927787879e-55  -8.4471256834889110e-54  -2.7090978043464273e-54  -4.1287228494342025e-21  1.9233186107050914e-39  -1.6878925051339354e-38  4.0921344449760871e-42  3.2103589077299005e-66  -8.2485320821971572e-22  -4.5103710760692453e-50  6.2695525598682874e-22  1.9260648462959358e-20  1.1022503565407994e-47  -1.0894887676978693e-36  -2.2075419449534579e-44  1.9377056314869247e-55  -2.9544948785452457e-54  5.8934145713352006e-25  -4.6194402456726783e-18  -6.7735131866245472e-35  -1.2384794577656531e-53  -7.4962552972131316e-49  2.1704849758645741e-40  7.3078602942407163e-43  4.7615399303066018e-43  4.9175343062222128e-52  -8.7938322838650418e-42  9.8549096224419939e-60  4.3989080846426523e-48  -2.4652670034415686e-26  -1.1828567155012948e-58  -1.8581613998024756e-51  4.5502616209756524e-47  1.2716349645739520e-46  -2.2025150440304386e-65  1.4680293779285853e-63  -1.4561121812287271e-62  1.1296715148260421e-51  2.5546201925410032e-51  -1.5876125019595128e-47  -6.2020425013023958e-21  -1.3810706454022056e-21  -2.8052183798026281e-39  7.1202053390958179e-59  -3.0623741025768680e-64  -7.4249509585188035e-43  -1.0411952975085109e-68  1.9773489157618508e-67  -3.5767929551572973e-32  4.7150113380681336e-34  8.6972219800988756e-51  2.3981842361999555e-47  -1.7384288402474718e-38  -4.9004390474599509e-20  -5.9497048381429442e-54  1.2691058578606571e-51  -6.5210612480407465e-48  -4.0466943279027781e-07  1.0642409985565645e-07  -1.4443923165554770e-09  -3.1918808779029091e-44  -9.1225368791239456e-51  -6.0248378365218102e-48  -1.0149990652551854e-14  -2.8227330387184883e-58  1.2265777161369103e-49  2.6282113905330412e-32  -4.8014128170263524e-39  -1.7426217192988742e-53  -3.0477389719506693e-73  -1.3714111834261131e-42  6.7558569680380231e-62  2.0191563504594550e-67  3.1834824401398557e-13  7.1415772950691426e-31  2.8952676431629185e-41  8.2412362625787849e-54  7.3278750103735073e-57  -1.4601051784433069e-38  1.1444995318312718e-52  -1.1223562491542526e-12  -5.8407845081925877e-37  -3.3772080467192498e-68  -2.7898302925329267e-35  -3.0545780661169514e-18  -1.3240884218758566e-27  1.8605871078166164e-49  5.5845425217201579e-26  1.0149667432414770e-32  1.5316957800812695e-24  9.9186552877064356e-56  1.2210519670336006e-44  2.8623736523827688e-08  1.7912821128825321e-26  -1.5632754298445535e-14  -1.4369516508470237e-13  -8.9282734614758637e-17  2.8739278608558240e-11  5.3044910065953795e-11  -3.1166369457283319e-57  5.8861647471729124e-60  -3.0821870040666893e-37  -7.1699652354827589e-34  -2.9898141886830670e-34  2.3373818581149474e-28  -1.6062974337810820e-04  6.6942560661068439e-52  3.8303637605473792e-55  1.4820043696493131e-21  3.0993473665711794e-61  6.7049149347332384e-52  -2.8406316038871434e-64  -1.2928735667242254e-47  3.3680099165301527e-64  2.9964119370437104e-25  2.0841303458532020e-57  2.5347304445431843e-34  -1.4231589119303311e-55  9.9870733198046223e-55  -2.7780517021283847e-05  -3.9050362433946377e-02  1.2835918064651975e-60  6.3503168813250115e-26  6.6115847247382636e-71  -1.8253025621798261e-03  -3.2868793041065097e-44  -1.5394804765219509e-53  5.0837943451541642e-17  2.7637019924405466e-18  9.3434405278939223e-40  1.2864046596269008e-53  2.3373899620829740e-35  -1.6392625840856562e-23  -1.6144933574962181e-69  1.7011942145528212e-07  6.3927718752245166e-46  9.4994358551926875e-45  1.2388256946309847e-21  7.1069638283444426e-54  -2.4081043497027722e-10  1.2663113680160846e-36  3.3312603137692064e-49  -6.1922121171605564e-45  -4.9815996287906433e-42  5.2476205913451552e-60  -7.7549128582093529e-36  2.6452945058102753e-44  3.7485066399163623e-29  -2.7603812230192654e-45  4.7754686736902084e-52  3.3224194931449686e-56  1.0331042887255871e-58  -6.3587388753779834e-45  -1.0897397261667001e-24  -1.0135122624511209e-59  -1.5260356819188452e-61  5.3424798017839833e-24  2.0680108619073499e-71  -3.5803541615878485e-56  -2.1636464780422914e-69  1.5096581066553592e-50  8.6515580128577747e-54  6.9903329649639893e-61  -1.5539650606996360e-33  -4.3200683151122092e-56  -1.4554554254935704e-64  2.9741000412107165e-35  -3.2361699846481507e-32  -5.7770529281725714e-59  4.8624452222002334e-61  -1.1317445683680142e-62  -6.6437994007484582e-19  -1.1224404756551600e-20  -7.8898518156452689e-26  -8.8878941066811715e-59  -6.5937898306709142e-13  -2.6131218411437404e-18  -1.3805375097571001e-39  1.4422460796881407e-39  -1.7614402563860004e-54  4.6131560941812268e-07  2.4529676628339805e-47  -5.0282129330017881e-53  5.8471597827646965e-12  -4.0443375122244124e-29  1.2016951764344287e-03  7.1820403477649334e-06  1.8656586350257021e-66  2.2922901708339395e-73  6.7885185845100207e-77  1.9264102214044452e-74  -2.3427263673851731e-29  6.6504937789344186e-61  5.7127459937640290e-09  -3.5280472761943032e-67  4.3472545117842239e-71  3.7832662943114958e-55  1.1866383707117163e-42  1.6662320459011131e-53  4.0830932189207766e-37  -4.4048940667026018e-54  9.0202238244246877e-33  5.8580353469610469e-58  5.3268042973942809e-14  -8.5989912165455066e-14  -1.0311166845856010e-11  -1.9106265873293812e-60  7.2762476178333142e-10  7.7463180949963475e-22  -3.5804435356379629e-10  -3.5404058502294022e-44  2.7002081613044299e-27  9.5795281438947190e-25  8.9729017229289116e-47  -9.2302880202347729e-30  -8.7606732362326897e-32  -3.6702695692090762e-34  2.7014236352691724e-26  1.1406652523068855e-10  7.3631313730602602e-09  1.1695522644468841e-53  -1.4390745560463225e-49  -2.4707991377345029e-44  9.4016971724724566e-52  -3.2798601033794077e-16  -8.5811541790537060e-60  4.2338587280868769e-31  2.8929737971442770e-48  2.6627844010594704e-29  2.5126749608499599e-17  3.5498932062152768e-40  -3.9602232436706162e-43  -1.1789560968559038e-32  2.8500792770308620e-23  5.4457283840950421e-26  -2.9958849737338464e-42  -1.4395031175215200e-56  2.7686665493157596e-17  1.7156813593220325e-50  -8.8899760326558501e-51  9.7378217516881495e-31  4.1336044408547833e-40  -5.3246097832015842e-19  -1.6157386077050524e-44  -2.6664377410385311e-15  1.0571720534338421e-58  4.2648915502578486e-37  -7.6366776972741256e-37  -2.1123937376807157e-54  8.5833250445922742e-50  3.8761423546919929e-49  -1.5276237545917494e-52  -1.6767028550510100e-52  1.2843839755998590e-48  3.4714853035515118e-28  3.6584398520353943e-49  -2.8361564004205975e-38  1.4757377082727101e-29  -7.9874368515916207e-42  2.8777428001510224e-41  -1.8426961190445976e-58  1.2199291012340687e-35  -5.5357447756462033e-41  -3.8580804671491982e-42  4.0190118581488005e-45  3.9712842004936403e-47  5.5551493490249952e-33  2.2081716180624090e-34  7.2046706164223684e-38  7.5123872432930438e-29  -2.0496481634483706e-48  -6.3455061475362326e-53  2.6904583320328241e-55  -4.2639627355062283e-49  -2.0192348919371960e-46  6.0870551115609864e-50  -6.6915816036839718e-59  -8.1482534883053870e-43  3.7398386834765364e-32  -1.8497216292635940e-58  2.3349986293215564e-57  2.8054002143986148e-54  -4.2418452821673069e-39  -4.4185515635250933e-30  -3.1328968970105356e-22  -4.1535285668467909e-42  -1.4679119740258291e-42  -1.1276888650651598e-20  -1.5116362790440174e-29  -8.4103310991281263e-62  1.4989005182465859e-15  2.9483911713142519e-41  -1.6565884029292352e-61  1.0696672967932960e-61  -6.6457525270888357e-68  5.0077161411381259e-48  -1.0263875359761238e-53  -3.0366644229434637e-29  -3.3492803645544231e-42  -3.2578570749740857e-37  1.0700132485961349e-26  -3.6504015458342362e-52  -6.3261587148199996e-55  -2.9888162260615840e-40  -2.7711325961807486e-50  -4.0042500541370575e-26  1.8015284504365280e-38  3.8666596045554589e-30  -5.3095