<?xml version="1.0"?>
<VTKFile type="UnstructuredGrid"  version="0.1"  >
<UnstructuredGrid>
<Piece  NumberOfPoints="6486" NumberOfCells="12696">
<Points>
<DataArray  type="Float64"  NumberOfComponents="3"  format="ascii">0 2.5 0  0 0 0  2.5 0 0  2.5 2.5 0  1.25 0 0  2.5 1.25 0  1.25 2.5 0  0 1.25 0  1.25 1.25 0  0 0.625 0  0.625 0 0  0.625 2.5 0  0 1.875 0  2.5 0.625 0  1.875 0 0  2.5 1.875 0  1.875 2.5 0  1.770833333333333 0.7291666666666666 0  0.7291666666666666 1.770833333333333 0  0.9375 0.625 0  1.875 1.5625 0  0.642361111111111 1.163194444444444 0  1.341594827586207 1.883979885057471 0  0.46875 0.46875 0  2.03125 2.03125 0  0.3626104797979798 1.513178661616162 0  1.381740196078431 0.4564950980392157 0  0.9375 2.172619047619047 0  2.172619047619047 0.9375 0  2.096354166666667 0.4036458333333332 0  0.4036458333333333 2.096354166666667 0  1.684027777777778 1.163194444444444 0  0.3418803418803419 0.8693910256410255 0  1.642742622813391 2.162164207604464 0  1.275619849389031 0.8465650753054845 0  0.9136284722222221 1.434461805555556 0  1.732437511238546 0.3406962303960658 0  0.9714402568595876 1.029779313093998 0  1.52281746031746 1.485615079365079 0  2.1875 1.71875 0  1.06819722569879 0.2997236128493951 0  2.136114211309524 1.303478422619048 0  0.3125 0 0  0 0.3125 0  2.5 2.1875 0  2.1875 2.5 0  0.3200021620376328 1.192323085056694 0  0.6738456129277992 0.8304377375553881 0  1.757891808928991 1.861952730357003 0  1.5625 0 0  0.9375 0 0  0.3125 2.5 0  2.1875 0 0  2.5 0.9375 0  0 0.9375 0  0 1.5625 0  0.9375 2.5 0  2.5 0.3125 0  0 2.1875 0  1.5625 2.5 0  2.5 1.5625 0  0.7448220909826522 0.3003573636608841 0  1.027298850574712 1.871151477832512 0  1.331260495098891 2.197262878816185 0  1.207917681892289 1.582765010956622 0  0.4339993447432606 1.801186844743261 0  0.6337298768939392 1.443093039772727 0  2.049851190476191 0.6826636904761904 0  0.6584821428571428 2.219122023809524 0  1.89575676467455 0.9798457973793544 0  1.437570562095628 1.059380588255917 0  1.502090052505845 0.6987070896496241 0  0.2040860661083546 1.705323965099331 0  0.2083333333333333 0.46875 0  0.5070952039991439 0.2211150679997147 0  0.6916302856529919 0.5813591430410241 0  2.265625 1.953125 0  2.2265625 2.2265625 0  1.886424081252096 2.243391360417365 0  1.40625 0.202164758520858 0  0.2269345238095238 0.2269345238095238 0  1.152730869673694 0.5225850378741401 0  1.885631899587912 1.312095130148776 0  1.614808884009367 0.9049784971014416 0  1.890095442220658 0.5126535558463003 0  2.323168682795699 0.46875 0  2.268811725689575 0.2304742875213018 0  0.6002389442105756 1.967426444210576 0  0.1768313172043011 2.03125 0  0.2311882743104251 2.269525712478698 0  2.03125 0.176831317204301 0  2.280262553344767 0.6954945504579233 0  1.979219539285994 1.809922269642997 0  2.336309523809524 1.09375 0  1.09375 2.336309523809524 0  0.9314042474388009 1.662973812215543 0  0.1634067999087722 1.40625 0  2.337090640094896 1.40625 0  1.141616997467638 2.069311773587991 0  0.46875 2.338939559681489 0  1.542440307908715 1.734944797244472 0  1.556713687786879 1.956977865354753 0  0.8264238995344066 1.975424467820646 0  1.466326331454725 1.275271369760862 0  1.655675324257095 0.5444159974393489 0  0.3385416666666666 0.6479255698005697 0  0 0.78125 0  0.5236073939200119 0.984090461540625 0  2.091665741047893 1.519793517904215 0  1.71875 2.5 0  0.5356538886262603 1.623137930505009 0  0 1.09375 0  0.1932884281517095 1.015625 0  0.8569313582417669 1.2198915584249 0  0.8876981284879677 0.8329884081524883 0  1.115618488474214 0.7219586973356271 0  1.186950366204949 1.043465130075318 0  2.057459118787237 1.110823087309335 0  1.830651283878689 2.049810069572418 0  1.689107969301489 1.367247437031697 0  0.4921048768039656 1.298643370653124 0  0.8213975694444444 2.336309523809524 0  2.03125 2.5 0  1.049729400480002 1.283723261332814 0  1.308101375801673 0.6489479469700392 0  2.5 2.34375 0  0.4968777175037714 0.7562964879736076 0  1.40625 2.5 0  1.501347663534097 2.307027627307738 0  1.602813712048603 0.1926218191360736 0  0.8393082906308107 0.463778306132633 0  1.682663349152719 1.598471865581041 0  0.7774174680851571 1.560004941327907 0  1.554204170364662 0.3898593897892066 0  1.842184459051087 0.186443880058197 0  1.358107417651776 1.696381759610015 0  1.18859291992392 1.77598670078022 0  0.1875331222687418 0.7609599743339348 0  1.339536743965101 1.422080365801479 0  0.7788179348750389 0.9955343414928611 0  0.9062978492805438 0.1919636509126373 0  1.256007360640958 0.3160320559396114 0  1.09375 0 0  1.174986727221844 0.1594990293443933 0  2.34375 1.796875 0  2.318026474511116 1.589177949022232 0  2.34375 2.5 0  1.672742954892153 2.332882724550692 0  0.2683637361947215 1.874801596909639 0  2.174770749820102 0.5581009131310781 0  1.443279522965991 0.8870068372898454 0  0.3385416666666667 0.3571428571428572 0  0.78125 0 0  2.060421048269335 2.314363248763811 0  1.088078737088509 0.8967352118723447 0  1.087825368444708 1.454931510884769 0  2.018308232129541 0.8548495425854904 0  1.943987311736842 0.3246298523011434 0  1.71875 0 0  1.85337849796276 1.144833312386208 0  2.3486328125 2.1044921875 0  1.407588788651747 2.042968789119587 0  2.336309523809524 0.865366648092144 0  2.34375 0 0  2.5 0.15625 0  0.15625 2.5 0  0 2.34375 0  0.1638044648294291 1.242263417405867 0  0.356216654757926 1.032569427322806 0  0.3188217956111817 1.355736727000647 0  0.5924956460852111 0.36112522004736 0  0.6594216488965849 0.1603472116132387 0  1.841804599497131 1.72214349266521 0  0.15625 0 0  0 0.15625 0  2.115898634821499 1.894570904464496 0  0.7821877980253907 0.7129993435924866 0  1.003820447087786 0.4516053462784233 0  0.477562948779147 1.138333049293613 0  0.719493678605015 1.305655360135975 0  0.9772457618587566 2.020350128938537 0  0.8764738248887107 1.826219722709673 0  1.254787875123819 2.339010653832026 0  2.343597354852534 1.249982759769001 0  0.78125 2.5 0  0.46875 2.5 0  2.5 1.40625 0  1.09375 2.5 0  2.5 0.78125 0  2.5 1.09375 0  2.03125 0 0  2.5 0.46875 0  1.40625 0 0  0.46875 0 0  0 0.46875 0  0 1.40625 0  0 1.71875 0  0 2.03125 0  2.5 1.71875 0  2.5 2.03125 0  2.005424054645407 1.653223486966518 0  0.1538730573856537 1.559850281736677 0  2.33984375 2.33984375 0  1.166539506212474 1.922878979538754 0  0.3914885633949916 1.65887232812171 0  0.5795503163042564 1.766243562569382 0  0.399533125920212 1.946786875081388 0  0.7866324979014098 2.127719094551316 0  0.3654683023546834 0.1495701132219454 0  0.1527388747131078 0.6116379440619215 0  2.013737577140188 1.391056634712135 0  1.17635437372994 2.213329084238133 0  1.737118141866284 1.010577140843115 0  2.200707118087222 1.164723314085963 0  1.697018908736685 1.993548551451517 0  0.5387621649009668 0.6070503962352419 0  2.032805785855952 0.5330427622570983 0  1.082699501358059 1.667818725183932 0  1.503819781540653 0.5468420196858188 0  2.015409142866072 2.175941657590429 0  1.752057611265444 0.869642097111018 0  0.612251684107783 2.356045720700959 0  1.902817102342857 0.6607642211999982 0  2.159616561739693 0.7867739969338844 0  0.5120038350106624 2.197302352398502 0  1.888200216011548 1.919501662489862 0  1.495909909726654 2.16028358757309 0  0.489139876703609 1.443203008943564 0  0.8819175670410521 0.3301172743913011 0  1.882591144370812 0.8155965192707721 0  1.133979796994841 1.172526771862882 0  2.206217447916667 2.084147135416667 0  2.20361328125 2.36279296875 0  1.395746985657004 1.556054166359645 0  1.704383111516207 1.734750450338683 0  0.9575737847222222 2.36274223823052 0  1.035150984253136 0.1302833343179028 0  1.383966125325753 0.7651479963479179 0  1.64003252158672 0.6824316405528895 0  2.22550785055421 1.487078576356817 0  1.760964431499756 1.48495222505201 0  1.276460980673788 2.004207003584658 0  0.1341477688427096 1.828777507920502 0  1.542261434180652 1.155296658359034 0  1.334627911613854 0.9696897472490321 0  1.30794231473696 1.119420615785191 0  0.7028260459857245 0.4438906910721139 0  1.625757433094055 1.84268057552138 0  0.9818707849053143 1.165603626132254 0  2.0086489901463 1.243134585689553 0  1.934584460420609 2.374094051915812 0  1.798434376789567 2.38671361912528 0  1.206314791201715 1.382064292497919 0  0.6333752893366955 0.7023738550008095 0  0.7796219811205605 1.42573253164258 0  1.564399711917382 1.026040828857629 0  0.3385416666666666 0.4889012896825397 0  0.1041666666666667 0.390625 0  0.989112246382566 1.543537365516289 0  2.025724425454636 0.9846960595520872 0  0.6602885475034063 2.086117390485779 0  1.607130551925032 1.267198646640915 0  0.1317864544877056 0.8896173683400176 0  1.755387840017567 2.230364320056445 0  1.301540702984401 0.1216289692748247 0  1.433170657577442 0.3331052752740999 0  1.500459610550388 0.113513924782439 0  0.6494291520606965 1.029586599619295 0  1.010146149868299 0.794897284196169 0  0.3700844198238017 2.235390157870766 0  0.3360891767780704 2.36656279435396 0  1.876856241037701 1.437150669863757 0  1.778674102957329 1.245979347269706 0  0.5472829890977179 0.1005517127039925 0  0.4669074189005698 0.3416784232954367 0  1.472765289289269 1.850899166481903 0  1.555853593327178 1.608452097912802 0  0.6708955559113426 1.646561631116984 0  0.8164699620322933 0.5924479455478063 0  0.3167738989468366 1.758696809749795 0  0.2788007305565096 1.605499483471246 0  0.7821720982350511 0.181524936294752 0  1.376812251214195 2.313340247908297 0  1.785652202614777 0.5962261755537186 0  1.761467296310972 0.4679567244718574 0  2.2265625 1.8359375 0  2.3828125 1.9140625 0  0.5279531607054191 2.071552361614785 0  2.397573269551114 0.234375 0  2.383578172599618 0.3589298466020009 0  0.1024267304488855 2.265625 0  0.1164218274003825 2.141070153397999 0  0.2696857594953064 2.135405441512016 0  2.164961300137334 0.1375322943529536 0  2.137757548369486 0.2724194778647587 0  2.238873711826398 0.3626419179496562 0  0.1001414910226386 0.234375 0  0.2176339285714286 0.3478422619047619 0  0.2503620791333544 0.1061694061057066 0  2.336445461915368 0.1250451055247424 0  0.2154004640409726 2.3918124
[...]
<PointData  Scalars="f_16-3"> 
<DataArray  type="Float64"  Name="f_16-3"  format="ascii">8.2930352560696221e-05  -1.0034640076264034e-09  7.7844536094780213e-12  4.6140015435744495e-05  -3.3864927755143306e-10  2.9581611307314981e-07  1.0507024260798440e-04  2.2634721898675335e-04  2.9196334509846089e-04  2.1381583870836235e-04  -7.9712109923677190e-10  8.8038016844207628e-05  2.0778498982345671e-04  3.6317783038650101e-11  -3.4897331917410567e-11  1.9393695944292435e-05  1.7184592611461263e-04  1.0403841105065976e-07  2.4049135979585439e-04  2.2264661547625181e-05  1.0085480900688284e-04  4.9896565810021178e-04  4.0944869861830234e-04  1.3352964318760587e-04  2.0945059117559922e-04  2.2754787425462744e-04  2.3558113813956894e-08  1.7618368381025587e-04  8.1202633181108199e-08  1.6538418939836305e-11  1.7689441198932010e-04  2.4954130348753857e-05  4.8681564625361283e-04  3.2829809785237402e-04  2.0874478494714792e-05  4.7718250966961970e-04  -3.7025792640871332e-13  3.4768555447699885e-04  2.6238324488118779e-04  4.8294067121384082e-05  1.3886368308844871e-08  5.2771099409425993e-06  -1.0129174091172373e-09  -2.1335523892376131e-05  4.5487725068947387e-05  1.1581067281653487e-04  2.4833327151531863e-04  5.1410954379016503e-04  3.1717293775255622e-04  -1.5077870884034103e-10  -5.5041837194347835e-10  8.1600243558179936e-05  7.6676023247827963e-12  5.9494678545760139e-09  2.2630191504187055e-04  2.2456792188677312e-04  8.9019621160641352e-05  6.9143831048970308e-12  1.5495048573078331e-04  1.4340276618345337e-04  3.9163159521511161e-06  2.1622239813336047e-07  2.9216750101952217e-04  2.3625426975662373e-04  4.7863540777670676e-04  2.1701874479976426e-04  3.0027334256645355e-04  4.6196717509503815e-09  1.5185224835826899e-04  1.1641243231238731e-06  4.4956368979084789e-05  6.8210746928215439e-07  2.2107752368339626e-04  1.2474052288894153e-03  1.9872545638578570e-07  8.4521662803762910e-05  7.5053099788405554e-05  1.3087042928853148e-04  2.6474680247270520e-04  -1.9084018531979586e-10  9.1119339229160339e-07  6.4365619948834553e-07  2.3628399865727059e-05  3.8813059210460763e-06  7.2600013207113859e-10  1.4626361853087649e-11  9.7010904103554826e-12  2.0202047197398392e-04  1.8710808557597638e-04  1.3533226030368242e-04  -3.1603172856175943e-12  7.8930649177032845e-10  1.6112093755045467e-04  1.6949804424143533e-07  1.3840939035110917e-04  3.5060807772432624e-04  2.2614243005609401e-04  3.3437412484622309e-06  2.4484934630601436e-04  1.2076038039186096e-04  3.9170105063297318e-04  4.0014708236141787e-04  2.1501754614522067e-04  1.4214962167134754e-04  1.0907453631306732e-08  8.8738474271817945e-04  2.2538777796897216e-04  5.7331122328096160e-04  2.8268558126238427e-05  1.6765668313139148e-04  2.3330205466846925e-04  2.2639290125511157e-04  2.3840558187938725e-04  5.5125681027459164e-04  1.9843148932089381e-04  1.6943895140284318e-05  1.5924187044424212e-04  1.5774458090502341e-06  3.1241517090582939e-04  8.6313137452402919e-05  2.8712390684567898e-04  1.2548849318329177e-04  1.5522066912464937e-04  4.8111704453968198e-04  1.3907880058621456e-06  5.0668142794657063e-05  7.2211969806356259e-04  1.2025682184019263e-04  2.2028729172123167e-04  -1.2374574340620856e-10  4.3320222542791878e-06  2.2397942017431203e-04  3.1719649962963622e-04  1.0883503225015359e-09  -3.6441831343600586e-11  4.5341698611097759e-04  4.1085038285417830e-04  3.6601370609576920e-04  3.5091425439497521e-04  5.4065566126853648e-04  1.7678201909213692e-09  2.9302037936231055e-09  -4.4089380285402663e-10  -2.7495472132865198e-10  3.0186959885269585e-05  1.2755224176226021e-05  7.5710279721050839e-05  2.4110512986999383e-04  2.1016001197194406e-04  1.3268833568485463e-10  9.9995003742998493e-06  5.7026269967842195e-05  -6.5223530142061298e-10  1.9158395488083499e-04  1.0348261174289231e-04  4.9883248949893319e-04  8.7516006115245592e-08  -7.7136208246939113e-12  -8.4999569362778728e-11  7.7275607417974105e-06  7.3718476258296582e-05  3.4591879774678244e-04  6.3786172760286665e-09  9.7360118246018556e-12  7.5004118115153414e-12  8.2562963609574634e-05  1.1236874232474016e-04  2.2707446743583224e-04  3.2781116376945704e-04  2.3086488162682464e-04  5.6453212190871944e-06  4.0759526696195001e-09  1.9765814274451616e-04  -9.4836676875966809e-10  -5.4363668592017297e-08  1.2203351392275807e-04  1.5391709805953876e-04  7.9949256796457715e-07  3.6790838797678055e-04  4.4381680164229826e-04  2.2555191751489872e-04  2.6048719415259933e-04  1.5808303757079844e-04  7.9262080142782333e-07  8.7831558237824530e-05  8.2913138520192303e-05  1.1719770401709678e-06  9.4152745021533306e-05  5.0336032069849735e-10  4.6341542096241656e-08  -5.5810713571123337e-12  7.4559731395353990e-12  -2.3097277402788469e-10  -9.3383381325356117e-10  1.4851029360386255e-04  2.2600307939875944e-04  2.2025295522119502e-04  1.8848402138301108e-04  9.6866633973926176e-06  3.2701927257078762e-05  8.2316790171378296e-05  2.2464163929015608e-04  8.8151965397823549e-05  3.2379932276097831e-04  2.2402074330402281e-04  2.2363650190319352e-04  2.0261099050714805e-04  1.7857439389479921e-04  1.8902304285758675e-08  5.7199920903716020e-04  2.0035434556649495e-05  1.9525382852267871e-04  4.8276650331400764e-06  8.9821162319860154e-07  3.6742103333887630e-04  3.4333884452633878e-04  2.5775475846535556e-10  4.2393045441986777e-04  4.5451674165232177e-08  2.2629103403894028e-04  8.3450354530498486e-07  1.1716629709967198e-04  1.0058471925739458e-08  9.0508664259239908e-09  1.5649844560822475e-04  2.6011098121396292e-04  3.0359619770338995e-04  2.4707691895772848e-04  1.7564456832585752e-07  1.3629486076960242e-07  3.2925525858899736e-04  1.2722850390378194e-04  1.2827637233610347e-04  3.9398867510474973e-04  2.9436360019204956e-04  1.2109449856090566e-04  -3.5872173868944887e-10  3.9308378289548943e-06  1.4820588159780972e-07  1.1569923827051952e-05  1.1529769585474068e-04  3.2362362071962060e-04  2.1407656593007180e-04  4.9483419964388440e-05  4.0269075131990029e-05  1.3267382108276971e-04  1.1706712884100753e-05  3.8153012770986351e-04  4.6932525568807101e-04  7.4818085396722408e-06  2.1070826150353155e-04  2.1742748773545496e-04  4.3013456996189917e-04  3.6812395862672654e-04  3.9755327720511599e-04  1.6517825932524421e-05  5.4376787843661806e-04  1.4163001674378848e-03  4.4702847589968248e-04  4.6690958248415573e-07  1.8189663365223135e-04  7.3236081697864743e-05  2.3831749409447301e-04  2.9547711079834971e-04  -2.9530102831158188e-10  8.4499433198715330e-10  -1.8152619863580727e-10  6.0887325122414208e-04  7.5162650795334381e-05  1.4626805234298955e-04  1.1067670975980698e-04  5.2233593547007943e-05  2.6900188189484148e-05  -4.3740856652929800e-11  1.0826543003379178e-05  4.2823670556191371e-04  3.1670165990010571e-04  2.5165951157750193e-04  3.9699281080564261e-05  2.1892157616626998e-04  2.2422872885385112e-04  4.2011942072398120e-09  1.8981531009437476e-04  8.9266968318409053e-09  8.0351674800221068e-10  6.4343381730214960e-05  3.7548826158522501e-05  1.8347727879805919e-04  8.5084156605064795e-12  8.8806342420513246e-12  1.3630465987650025e-04  1.6788020375075197e-04  1.6858137232796490e-04  7.1560469441744507e-12  6.6473139461608784e-12  1.0607919473554983e-11  -3.0944663286486005e-07  1.9909829411075098e-04  -1.6836738616299936e-09  9.5217907191549208e-12  1.0311671322462321e-04  1.7354959394425028e-04  -5.4558093634487439e-09  -7.5726469887020542e-11  6.2831737732620727e-06  5.1535161391589896e-08  2.4654567477647142e-07  1.9567821162274837e-04  1.7266501197246766e-04  5.7778094541672046e-04  2.0097010851745947e-04  -1.9502683742509347e-11  5.4236895435828122e-11  8.8878452947930017e-10  7.3144624878743736e-05  5.5131709585307164e-05  2.1742295206666570e-04  2.0966292968093515e-04  2.2603994510336274e-06  2.8154708629027421e-05  1.6250675159171847e-04  4.1677239700515157e-11  6.5862137694534903e-04  2.8328178077502187e-04  3.1998556748656393e-04  1.3950811310741937e-09  -5.3453947489353434e-10  2.2657908357658426e-07  2.4895652663005856e-04  2.3239704400071696e-04  2.5163752660875418e-08  2.4600500208406945e-04  3.7595215890039808e-04  8.7477959481436918e-05  1.9516971788910363e-04  5.7155134354331884e-11  1.1871363937847225e-04  2.2648969830940907e-04  2.2627310554325895e-04  3.4904305797386781e-06  3.0026738568514008e-06  5.0841951640159659e-04  -1.1464647370023526e-10  6.7855865386719709e-07  2.7832986046709928e-04  -5.4802523088178419e-11  9.3709900321132957e-06  3.6788287807192619e-04  1.0646661981302562e-04  1.0676373879986023e-04  5.3013816492633744e-04  6.3409197386280673e-04  5.5905335014782046e-04  1.0279104666636812e-03  1.1128528322904736e-09  2.2302993712290233e-04  2.2649346165781034e-04  9.4901131804075998e-07  1.9872342383297275e-07  1.3362747583377824e-04  1.0064099008546186e-04  6.1982649653658347e-05  5.6976790101494340e-05  1.1797081625716558e-05  1.7584904236919085e-07  1.5086548261474090e-04  -5.8035863218271887e-11  3.4187596119992559e-04  1.9873119193031838e-04  2.4244439240859721e-04  2.5445963912126108e-04  2.2559254675520162e-04  1.9958434085988391e-06  1.7355159408203346e-04  4.0505154794796659e-04  3.2293424744656273e-04  7.0712367288328274e-05  1.5705257127859057e-04  6.4759578191747624e-04  8.7823848804480278e-05  3.1453939896635547e-04  2.0835976857302640e-04  2.9117462826036238e-08  4.9406225232419157e-04  3.6454963039778831e-04  4.7440204198782480e-04  2.6705732242021597e-04  2.0344653582133978e-04  4.2416061515816367e-08  3.9232041268892566e-04  4.0234639136454900e-08  2.4489529301245218e-07  1.5427239534598417e-04  2.9727447570107834e-04  3.6880271126509126e-04  1.2476802714278323e-04  2.6109469582831854e-04  -4.8815256797599982e-11  2.5101910819006828e-05  5.1425193038359045e-04  7.3831805676004292e-04  2.2769406105052829e-04  1.9594056504389920e-06  3.9475362922820809e-07  4.3840381992549271e-04  2.8634925794830960e-06  1.9721600659959078e-04  2.5712049271404183e-04  6.8240932836428957e-04  8.7591716178590886e-12  2.9133568802995166e-06  9.2226247920529444e-06  3.3333282190326710e-05  2.3005830151921704e-11  2.2398735302810153e-04  2.3224224469731638e-04  5.1672926016988204e-05  6.9375147170145941e-04  4.9916274937631007e-04  8.4714713487518811e-05  3.9459921521734935e-04  3.9986437978627637e-04  2.2610856944857202e-04  2.7921948265833093e-04  2.9718638209254284e-04  2.7533728337375503e-04  2.1649912451098498e-04  2.0797694894476664e-04  3.2396979259123891e-04  2.6385301265584467e-04  -7.1068652140602988e-10  4.7777476270293947e-04  1.0342394451411547e-04  1.3336502173494613e-04  -6.5623669541959656e-13  -6.7942412658255969e-11  2.0031012590791453e-04  -2.3959770264577035e-10  3.5908552462286483e-04  -4.4567340671504293e-10  1.2370190829105752e-10  2.1973864697846004e-04  2.0641840141267381e-04  -3.5808799156062197e-11  9.6136062811152806e-05  5.5691678033816330e-04  3.1535353200242241e-04  8.9971497890830165e-07  1.9488994950211657e-08  9.4333490663930454e-12  4.5272938220832079e-04  2.2770443322957872e-04  2.4386695284370398e-04  5.8109784816829108e-05  1.4485027000380949e-08  8.9854203549720533e-05  2.9032247998464632e-05  7.8160954412111292e-04  4.7758147251326840e-04  2.3661974790329220e-04  4.3617047701131168e-04  6.8133755920494200e-08  2.3029050942001723e-04  3.2257670296238817e-12  4.5697976956709471e-13  2.4384412889988152e-04  1.4543789428510438e-04  4.8986165054134070e-04  7.6990743117195881e-09  7.0601021841313716e-04  -1.5219651742291046e-11  1.6807573563959445e-06  1.0135520326370397e-05  1.8685095629089071e-09  5.1112768849397757e-09  2.4277824456082578e-10  4.3874702069786022e-04  3.8792216952832634e-04  4.6099139444109156e-04  4.7352057211214929e-09  8.2012087565607177e-05  2.2947367676576970e-04  1.5887163883993447e-04  1.3528615279136851e-04  3.9209292663046401e-04  1.5512428464177784e-04  2.1557484593363952e-05  7.1988423903461712e-10  5.1736772355165861e-04  1.7061565297041612e-04  3.0052406594356380e-04  5.6061106273714937e-09  5.4690701985189643e-05  9.7915971137089365e-06  1.8920812674461705e-09  6.9194853260763404e-06  1.0351768078396588e-05  2.9960301682240757e-04  2.0580778295695707e-04  1.7133426882642852e-04  2.0828457638275697e-09  2.3070761794392183e-05  2.1254251890301731e-04  -9.7353561083804337e-10  1.2420578636367959e-11  1.3291102754498052e-11  1.1044700785631264e-04  -4.4057644117315578e-10  2.1372479593895815e-04  2.1658226597630860e-04  1.5146957315915826e-06  1.8272174469857681e-04  1.2419147987569400e-07  2.8839124742747243e-04  4.3373032841833035e-06  4.3120328773157279e-04  3.8342306107472647e-06  2.1521820154496768e-04  1.9770255579458924e-04  9.7793985520118275e-05  1.0216881381475410e-04  -4.2529118815246823e-10  3.6634687776775204e-08  1.8544133271188818e-04  2.7279274354590724e-09  1.5777121043522918e-04  2.3081095284594019e-04  9.7842014473700697e-06  3.4833241890539854e-06  1.2657081096741524e-04  1.8882598023764016e-04  8.5048470573834188e-05  6.6914547053176060e-10  -3.5600969128975910e-10  1.4090167818066845e-10  1.2311408487880768e-07  1.7938159369078840e-08  3.4532196224665906e-07  2.3167436439594992e-05  5.0253565083962372e-05  1.5518848541018821e-05  7.7056837325519268e-12  2.0665143477205286e-04  6.3771834941286768e-11  2.5878695911642804e-04  3.0785138813636532e-04  7.2311460380455420e-06  2.8431381558453574e-04  2.0017041217524362e-04  4.3914445917770909e-05  5.7070816265002362e-05  1.0756235298934730e-04  1.7612966870617003e-05  2.3713790953315009e-05  9.7522079895295367e-12  1.5665318694708317e-04  2.9436178205960228e-04  6.6334709974295836e-07  1.3236553493687080e-04  1.4243711014978372e-04  9.4329242499309060e-12  1.8156848982631548e-05  4.0759989029166122e-04  7.7834556039721537e-05  3.3669534791227579e-04  8.5129328881406338e-12  1.5727840808562015e-04  2.2615679320454985e-04  1.3130309523296026e-10  1.2012306110758977e-04  -1.6278259985926893e-10  2.9684753232626811e-08  3.0348155994903059e-04  6.4089518907543076e-05  3.4105713984297040e-04  2.6130253833051584e-04  4.7893787882402383e-05  3.8423944215255359e-04  2.4643705126328096e-04  4.5903887669905791e-04  1.2911313418356944e-06  5.2339812744183491e-09  2.5701657353731356e-04  3.6951972353586746e-04  1.0786587308950414e-08  5.8932395129441941e-07  2.5375906759130743e-05  3.3531306053688291e-04  2.8354084112224584e-04  3.5266366907252397e-04  3.5436607184432975e-04  2.4174134403478540e-04  9.5802902348186787e-05  3.6626105156394416e-07  5.9098599072534758e-06  5.0422260545424886e-07  4.7997097195829973e-07  2.2711678727450717e-04  2.0278171316774640e-06  -5.5843292926864912e-10  7.1616698089668339e-08  3.4882836952491954e-05  1.4937970083062127e-06  7.4126637702381166e-08  1.6071850549563961e-08  4.2685764073348498e-04  4.9159292866559668e-04  6.6104561485802463e-05  2.2948381006786936e-04  5.7988066055643182e-05  2.7211295663161407e-04  4.7028909784447096e-07  -5.0039500862473443e-10  9.2297939438578050e-05  3.7340977925946468e-11  9.0369200595956229e-05  3.7154238305721327e-04  1.9588103474144596e-04  5.4421410959503847e-05  1.2624941991000633e-04  2.5088678565703591e-06  1.9284764369652493e-04  1.4638318956872558e-04  -9.8485389545788981e-10  -1.3943456095555438e-09  1.6339087783237509e-04  -2.8171248623511286e-10  1.0005359633512554e-04  -2.6714890386466445e-08  1.7064233505117827e-04  8.2456204097199998e-12  1.6779161200868403e-04  3.1807857070814878e-04  2.7260575695040026e-06  5.1617822524854417e-05  3.3937834452167783e-04  7.8326586780580120e-08  1.6849389010430358e-04  -9.6199823423043508e-10  8.6633911416611181e-12  7.9704191130816261e-12  1.0512102064690656e-09  8.0266324829063579e-07  8.4951970633009692e-04  2.2184880308678221e-04  1.7503081059868554e-04  1.9692233207045673e-04  2.7424033345950001e-04  2.4786617762624419e-04  -8.0530766808169877e-11  2.5588095965064372e-04  5.0868196975881012e-04  4.4033508895596166e-04  3.9257336976853411e-05  1.6666849166423354e-06  4.6223258719796790e-07  1.7165777105712640e-04  2.2642191194048212e-04  1.4389607951545983e-04  5.5602523409755654e-06  -3.8656180974280836e-10  9.4030419073172722e-05  8.8635261989940831e-05  1.3800247941551412e-04  9.5666902403290942e-05  8.3581844161748626e-05  1.1112254118995388e-04  2.2300318580305661e-04  8.8450283044104859e-05  6.4862028625819500e-06  -5.4338861077077857e-11  -1.1681666209542453e-10  1.2063008111248049e-07  5.7484958256765888e-07  2.2681442795004302e-06  2.2635497747142068e-04  2.2638886158050020e-04  2.2624995404897503e-04  9.9134312690435478e-05  2.2275327004605357e-04  -6.0036489333794865e-10  -1.8190629486187737e-11  2.0041205207386382e-04  8.1729766670078635e-05  -1.0017340462247103e-09  1.3221953259061082e-04  7.1565875900806566e-12  -8.8001415101381150e-10  -1.9347476359922840e-10  -7.7226345168499214e-07  1.0312497545009762e-06  1.7327749938066882e-04  4.8792403454453910e-05  4.9539315949658852e-05  5.7236832650733842e-05  2.2542863446504670e-04  1.3032568842017642e-04  1.9945684471588639e-04  1.3849987633651638e-05  3.9481490886409297e-05  6.8344947374302367e-12  3.9356144182350224e-08  2.1616114547690066e-04  4.1232308618218550e-04  1.0107393538374736e-04  2.3012264421665325e-07  1.2665583697904194e-04  1.2706229759478342e-04  5.6567796891945498e-04  2.6481905300267512e-04  4.2496636301973887e-05  -8.5510998216273089e-10  4.4230074732239810e-04  2.9394839141632203e-04  1.9107266702397905e-04  5.1722238697898490e-04  1.7293761199002370e-06  2.0051309010284056e-04  2.2568158109050529e-04  2.2469936312348627e-04  2.2361023657791392e-04  2.2651277510095816e-04  4.1447801797546625e-04  1.0553172552759391e-03  3.7526599364802247e-07  4.1068346834447248e-04  2.5489339052662537e-04  2.3521565864122577e-06  5.4364586280676239e-04  2.0700174295787934e-06  2.2520172229392065e-04  2.3426156545370026e-04  3.9900488532971639e-04  3.9525798809025175e-04  3.4762489796736159e-04  2.1929015375877486e-04  2.9997597174238511e-08  5.9605482220010796e-04  5.2544270086326021e-04  3.6975807749251579e-11  9.5263198865976959e-08  6.6120028455819409e-04  3.0132353665843181e-08  2.5970125397520076e-09  4.1191412355583921e-04  1.1760324810139438e-05  5.0430035017598105e-05  4.8458389121170957e-05  4.1963129191865266e-05  2.3079045828066921e-05  2.3306506109390887e-04  2.3593892685829570e-04  3.3467020772565663e-04  2.8004518508532481e-05  1.5100522668495640e-05  2.1606149786840537e-05  9.8659059664861805e-06  1.6984301921686606e-04  2.2602711722003520e-04  2.7756952463372050e-04  2.1962194747041829e-04  8.1737097452306059e-06  2.1114126280728928e-04  2.0688648297382249e-04  1.8348794302651443e-04  2.2309890509721270e-05  2.2072936366221803e-08  3.7919079282720165e-09  1.8278193129539895e-04  2.7979804378641839e-04  2.2536846853926998e-04  2.2765751067231190e-04  2.2140323979381190e-04  1.4297469562786993e-04  1.1760464831659241e-11  1.6678487564524857e-04  1.7583545988927588e-04  1.5242485070603799e-04  1.6051694329747817e-04  1.4225448211634432e-04  2.4237023180866921e-04  1.8747865890929142e-04  -6.4925142749175015e-11  1.6142186104137040e-05  2.3167952667543645e-09  5.8426421009493761e-06  3.7272428734424394e-04  3.4469247860511562e-04  2.3012689256295756e-04  1.0572324382700483e-04  -7.4792477517071764e-12  1.7625598532168505e-04  -2.3074954087347501e-10  2.4796701445462340e-04  7.2981211950147234e-04  -2.2232891591527802e-11  2.1549939077040447e-04  2.5450861649214989e-04  3.8858299576712761e-05  5.1840952161676347e-09  9.4368284187477968e-05  2.3564676161548165e-04  4.3705451792231260e-04  1.6855488634294526e-04  2.5728830439499981e-04  3.8495029925174969e-04  3.4134417113243064e-04  2.2434681039530170e-04  1.0455001252807554e-11  1.4737250014791910e-07  4.6673778258386105e-04  2.6874768460730851e-04  2.6307959154038882e-04  1.3523786370104831e-04  9.9874968334277942e-05  6.7989825516989885e-10  9.2211421827444572e-05  8.5297252347143824e-09  9.7498448564679316e-12  1.6109088443569430e-04  1.7349323415282740e-04  -1.5182502293248879e-10  1.1382171570326830e-04  2.9796702757701077e-12  3.8915583062531497e-04  1.3131736481342615e-04  1.4992472407153