<?xml version="1.0"?>
<VTKFile type="UnstructuredGrid"  version="0.1"  >
<UnstructuredGrid>
<Piece  NumberOfPoints="6486" NumberOfCells="12696">
<Points>
<DataArray  type="Float64"  NumberOfComponents="3"  format="ascii">0 2.5 0  0 0 0  2.5 0 0  2.5 2.5 0  1.25 0 0  2.5 1.25 0  1.25 2.5 0  0 1.25 0  1.25 1.25 0  0 0.625 0  0.625 0 0  0.625 2.5 0  0 1.875 0  2.5 0.625 0  1.875 0 0  2.5 1.875 0  1.875 2.5 0  1.770833333333333 0.7291666666666666 0  0.7291666666666666 1.770833333333333 0  0.9375 0.625 0  1.875 1.5625 0  0.642361111111111 1.163194444444444 0  1.341594827586207 1.883979885057471 0  0.46875 0.46875 0  2.03125 2.03125 0  0.3626104797979798 1.513178661616162 0  1.381740196078431 0.4564950980392157 0  0.9375 2.172619047619047 0  2.172619047619047 0.9375 0  2.096354166666667 0.4036458333333332 0  0.4036458333333333 2.096354166666667 0  1.684027777777778 1.163194444444444 0  0.3418803418803419 0.8693910256410255 0  1.642742622813391 2.162164207604464 0  1.275619849389031 0.8465650753054845 0  0.9136284722222221 1.434461805555556 0  1.732437511238546 0.3406962303960658 0  0.9714402568595876 1.029779313093998 0  1.52281746031746 1.485615079365079 0  2.1875 1.71875 0  1.06819722569879 0.2997236128493951 0  2.136114211309524 1.303478422619048 0  0.3125 0 0  0 0.3125 0  2.5 2.1875 0  2.1875 2.5 0  0.3200021620376328 1.192323085056694 0  0.6738456129277992 0.8304377375553881 0  1.757891808928991 1.861952730357003 0  1.5625 0 0  0.9375 0 0  0.3125 2.5 0  2.1875 0 0  2.5 0.9375 0  0 0.9375 0  0 1.5625 0  0.9375 2.5 0  2.5 0.3125 0  0 2.1875 0  1.5625 2.5 0  2.5 1.5625 0  0.7448220909826522 0.3003573636608841 0  1.027298850574712 1.871151477832512 0  1.331260495098891 2.197262878816185 0  1.207917681892289 1.582765010956622 0  0.4339993447432606 1.801186844743261 0  0.6337298768939392 1.443093039772727 0  2.049851190476191 0.6826636904761904 0  0.6584821428571428 2.219122023809524 0  1.89575676467455 0.9798457973793544 0  1.437570562095628 1.059380588255917 0  1.502090052505845 0.6987070896496241 0  0.2040860661083546 1.705323965099331 0  0.2083333333333333 0.46875 0  0.5070952039991439 0.2211150679997147 0  0.6916302856529919 0.5813591430410241 0  2.265625 1.953125 0  2.2265625 2.2265625 0  1.886424081252096 2.243391360417365 0  1.40625 0.202164758520858 0  0.2269345238095238 0.2269345238095238 0  1.152730869673694 0.5225850378741401 0  1.885631899587912 1.312095130148776 0  1.614808884009367 0.9049784971014416 0  1.890095442220658 0.5126535558463003 0  2.323168682795699 0.46875 0  2.268811725689575 0.2304742875213018 0  0.6002389442105756 1.967426444210576 0  0.1768313172043011 2.03125 0  0.2311882743104251 2.269525712478698 0  2.03125 0.176831317204301 0  2.280262553344767 0.6954945504579233 0  1.979219539285994 1.809922269642997 0  2.336309523809524 1.09375 0  1.09375 2.336309523809524 0  0.9314042474388009 1.662973812215543 0  0.1634067999087722 1.40625 0  2.337090640094896 1.40625 0  1.141616997467638 2.069311773587991 0  0.46875 2.338939559681489 0  1.542440307908715 1.734944797244472 0  1.556713687786879 1.956977865354753 0  0.8264238995344066 1.975424467820646 0  1.466326331454725 1.275271369760862 0  1.655675324257095 0.5444159974393489 0  0.3385416666666666 0.6479255698005697 0  0 0.78125 0  0.5236073939200119 0.984090461540625 0  2.091665741047893 1.519793517904215 0  1.71875 2.5 0  0.5356538886262603 1.623137930505009 0  0 1.09375 0  0.1932884281517095 1.015625 0  0.8569313582417669 1.2198915584249 0  0.8876981284879677 0.8329884081524883 0  1.115618488474214 0.7219586973356271 0  1.186950366204949 1.043465130075318 0  2.057459118787237 1.110823087309335 0  1.830651283878689 2.049810069572418 0  1.689107969301489 1.367247437031697 0  0.4921048768039656 1.298643370653124 0  0.8213975694444444 2.336309523809524 0  2.03125 2.5 0  1.049729400480002 1.283723261332814 0  1.308101375801673 0.6489479469700392 0  2.5 2.34375 0  0.4968777175037714 0.7562964879736076 0  1.40625 2.5 0  1.501347663534097 2.307027627307738 0  1.602813712048603 0.1926218191360736 0  0.8393082906308107 0.463778306132633 0  1.682663349152719 1.598471865581041 0  0.7774174680851571 1.560004941327907 0  1.554204170364662 0.3898593897892066 0  1.842184459051087 0.186443880058197 0  1.358107417651776 1.696381759610015 0  1.18859291992392 1.77598670078022 0  0.1875331222687418 0.7609599743339348 0  1.339536743965101 1.422080365801479 0  0.7788179348750389 0.9955343414928611 0  0.9062978492805438 0.1919636509126373 0  1.256007360640958 0.3160320559396114 0  1.09375 0 0  1.174986727221844 0.1594990293443933 0  2.34375 1.796875 0  2.318026474511116 1.589177949022232 0  2.34375 2.5 0  1.672742954892153 2.332882724550692 0  0.2683637361947215 1.874801596909639 0  2.174770749820102 0.5581009131310781 0  1.443279522965991 0.8870068372898454 0  0.3385416666666667 0.3571428571428572 0  0.78125 0 0  2.060421048269335 2.314363248763811 0  1.088078737088509 0.8967352118723447 0  1.087825368444708 1.454931510884769 0  2.018308232129541 0.8548495425854904 0  1.943987311736842 0.3246298523011434 0  1.71875 0 0  1.85337849796276 1.144833312386208 0  2.3486328125 2.1044921875 0  1.407588788651747 2.042968789119587 0  2.336309523809524 0.865366648092144 0  2.34375 0 0  2.5 0.15625 0  0.15625 2.5 0  0 2.34375 0  0.1638044648294291 1.242263417405867 0  0.356216654757926 1.032569427322806 0  0.3188217956111817 1.355736727000647 0  0.5924956460852111 0.36112522004736 0  0.6594216488965849 0.1603472116132387 0  1.841804599497131 1.72214349266521 0  0.15625 0 0  0 0.15625 0  2.115898634821499 1.894570904464496 0  0.7821877980253907 0.7129993435924866 0  1.003820447087786 0.4516053462784233 0  0.477562948779147 1.138333049293613 0  0.719493678605015 1.305655360135975 0  0.9772457618587566 2.020350128938537 0  0.8764738248887107 1.826219722709673 0  1.254787875123819 2.339010653832026 0  2.343597354852534 1.249982759769001 0  0.78125 2.5 0  0.46875 2.5 0  2.5 1.40625 0  1.09375 2.5 0  2.5 0.78125 0  2.5 1.09375 0  2.03125 0 0  2.5 0.46875 0  1.40625 0 0  0.46875 0 0  0 0.46875 0  0 1.40625 0  0 1.71875 0  0 2.03125 0  2.5 1.71875 0  2.5 2.03125 0  2.005424054645407 1.653223486966518 0  0.1538730573856537 1.559850281736677 0  2.33984375 2.33984375 0  1.166539506212474 1.922878979538754 0  0.3914885633949916 1.65887232812171 0  0.5795503163042564 1.766243562569382 0  0.399533125920212 1.946786875081388 0  0.7866324979014098 2.127719094551316 0  0.3654683023546834 0.1495701132219454 0  0.1527388747131078 0.6116379440619215 0  2.013737577140188 1.391056634712135 0  1.17635437372994 2.213329084238133 0  1.737118141866284 1.010577140843115 0  2.200707118087222 1.164723314085963 0  1.697018908736685 1.993548551451517 0  0.5387621649009668 0.6070503962352419 0  2.032805785855952 0.5330427622570983 0  1.082699501358059 1.667818725183932 0  1.503819781540653 0.5468420196858188 0  2.015409142866072 2.175941657590429 0  1.752057611265444 0.869642097111018 0  0.612251684107783 2.356045720700959 0  1.902817102342857 0.6607642211999982 0  2.159616561739693 0.7867739969338844 0  0.5120038350106624 2.197302352398502 0  1.888200216011548 1.919501662489862 0  1.495909909726654 2.16028358757309 0  0.489139876703609 1.443203008943564 0  0.8819175670410521 0.3301172743913011 0  1.882591144370812 0.8155965192707721 0  1.133979796994841 1.172526771862882 0  2.206217447916667 2.084147135416667 0  2.20361328125 2.36279296875 0  1.395746985657004 1.556054166359645 0  1.704383111516207 1.734750450338683 0  0.9575737847222222 2.36274223823052 0  1.035150984253136 0.1302833343179028 0  1.383966125325753 0.7651479963479179 0  1.64003252158672 0.6824316405528895 0  2.22550785055421 1.487078576356817 0  1.760964431499756 1.48495222505201 0  1.276460980673788 2.004207003584658 0  0.1341477688427096 1.828777507920502 0  1.542261434180652 1.155296658359034 0  1.334627911613854 0.9696897472490321 0  1.30794231473696 1.119420615785191 0  0.7028260459857245 0.4438906910721139 0  1.625757433094055 1.84268057552138 0  0.9818707849053143 1.165603626132254 0  2.0086489901463 1.243134585689553 0  1.934584460420609 2.374094051915812 0  1.798434376789567 2.38671361912528 0  1.206314791201715 1.382064292497919 0  0.6333752893366955 0.7023738550008095 0  0.7796219811205605 1.42573253164258 0  1.564399711917382 1.026040828857629 0  0.3385416666666666 0.4889012896825397 0  0.1041666666666667 0.390625 0  0.989112246382566 1.543537365516289 0  2.025724425454636 0.9846960595520872 0  0.6602885475034063 2.086117390485779 0  1.607130551925032 1.267198646640915 0  0.1317864544877056 0.8896173683400176 0  1.755387840017567 2.230364320056445 0  1.301540702984401 0.1216289692748247 0  1.433170657577442 0.3331052752740999 0  1.500459610550388 0.113513924782439 0  0.6494291520606965 1.029586599619295 0  1.010146149868299 0.794897284196169 0  0.3700844198238017 2.235390157870766 0  0.3360891767780704 2.36656279435396 0  1.876856241037701 1.437150669863757 0  1.778674102957329 1.245979347269706 0  0.5472829890977179 0.1005517127039925 0  0.4669074189005698 0.3416784232954367 0  1.472765289289269 1.850899166481903 0  1.555853593327178 1.608452097912802 0  0.6708955559113426 1.646561631116984 0  0.8164699620322933 0.5924479455478063 0  0.3167738989468366 1.758696809749795 0  0.2788007305565096 1.605499483471246 0  0.7821720982350511 0.181524936294752 0  1.376812251214195 2.313340247908297 0  1.785652202614777 0.5962261755537186 0  1.761467296310972 0.4679567244718574 0  2.2265625 1.8359375 0  2.3828125 1.9140625 0  0.5279531607054191 2.071552361614785 0  2.397573269551114 0.234375 0  2.383578172599618 0.3589298466020009 0  0.1024267304488855 2.265625 0  0.1164218274003825 2.141070153397999 0  0.2696857594953064 2.135405441512016 0  2.164961300137334 0.1375322943529536 0  2.137757548369486 0.2724194778647587 0  2.238873711826398 0.3626419179496562 0  0.1001414910226386 0.234375 0  0.2176339285714286 0.3478422619047619 0  0.2503620791333544 0.1061694061057066 0  2.336445461915368 0.1250451055247424 0  0.2154004640409726 2.3918124
[...]
<PointData  Scalars="f_49-3"> 
<DataArray  type="Float64"  Name="f_49-3"  format="ascii">1.5201363403889947e-29  2.6303372389460688e-10  6.1144319852583922e-45  8.4802055343431879e-45  -3.9095895367143006e-22  -4.4538623496455856e-43  5.9806988999967056e-32  4.6417591687098126e-09  7.7083420065250309e-14  -1.0025208153720048e-04  -2.7816348100785604e-14  -6.2377112005914238e-31  -1.0942250817902254e-18  4.1178943527503606e-46  -2.1132041698767215e-33  -1.3306682461191382e-42  1.0993220063049079e-35  -4.1129057835249277e-29  3.7282250141294716e-16  5.1527957702358060e-12  5.2266735524465735e-27  1.5628617466253321e-06  1.5390641265033616e-20  7.8076536120937924e-08  1.7087947054391212e-32  1.8166375470374438e-12  4.2414962739004270e-23  1.0454814944882438e-24  6.5327849331951793e-37  1.9366155504568822e-38  -9.2649168537665713e-23  -2.6557783220474209e-24  7.9206110218132454e-04  1.0163468699649300e-27  -9.1898061408999677e-17  5.0700513864177903e-11  -9.4252520150305769e-31  5.8728439483878496e-09  1.6711955337074809e-19  -3.7016105974253246e-35  1.6689350786667100e-18  -4.0263772785452400e-35  4.5594693204034209e-12  6.2842480828807938e-07  5.8972587449589701e-43  3.4788479960921435e-40  1.3996927618977410e-07  2.4250980069495707e-05  1.1610843301278767e-26  2.2237921912254887e-28  5.9578849787734168e-19  1.0792612205091234e-30  2.4744655300504756e-39  -6.9430898331732516e-45  -6.1724710805151077e-06  3.1688141066207311e-13  -7.1446324625179057e-32  3.2674345055916105e-47  1.6735998463745820e-24  5.4349604407232037e-33  1.2563680968314901e-44  -2.9301670377568697e-13  3.3784314357351579e-18  6.9987096263357492e-26  1.4017767638158348e-15  -4.3174861027426751e-18  5.0762638503079382e-10  2.5795062434156940e-35  -1.5665431396402881e-25  7.8571841745608520e-30  2.1150851473487774e-18  -7.6474233150655339e-23  -3.1656504087843304e-16  1.5429792651859198e-04  2.3494742688915662e-12  -1.4167331061984230e-09  5.3480688465147503e-37  1.0376130289154424e-37  1.8327394929240375e-32  4.6672182072622020e-25  2.9973783946976620e-10  4.3070953177416267e-17  8.7864439747424941e-28  -1.6360723226119241e-24  1.9022266436083838e-32  -1.3374841799210519e-43  -4.6329407729299769e-42  -2.3822000999708450e-22  2.5747258923363773e-22  1.6117276794759011e-26  -1.0697418262135250e-36  -4.4223637941138793e-40  3.7647773871918149e-30  -3.3315063668087010e-40  3.5602366543408616e-29  1.8982022460019807e-14  7.1478073639359083e-11  -9.3577460254615583e-40  2.3509377140320107e-22  -1.1495687437636827e-27  1.0889492116571283e-21  3.1939814335608226e-24  1.1114472940793130e-20  7.1579834447283031e-18  7.4802869389992026e-28  2.1843199569210651e-03  -5.5682812570452662e-05  1.0725133968937227e-04  -9.8041943454146890e-33  5.6592838986224064e-34  4.1232151503621243e-14  -7.9118779779785203e-08  -1.7941318565943351e-06  1.5052325990369152e-08  2.5328556035450141e-08  -4.5432640125486029e-14  5.7526620787591039e-13  3.0198919027566347e-34  1.8572316707282277e-29  4.4926007969837994e-23  4.7784369422313185e-08  -3.3422103731418512e-28  1.2017187757240760e-37  1.8106316885107007e-11  1.8005802807437861e-21  1.0410010509139780e-43  6.4791436077846708e-04  7.1283873079985822e-32  6.4995694992470562e-29  -3.4959843084358413e-28  1.9003658195047091e-12  4.4470309318299361e-23  3.2849083917920220e-12  1.0257358501626652e-26  2.8076744859891853e-34  1.5142733998149824e-18  1.2054920932303329e-17  5.8593810654291255e-04  3.8027116824093805e-16  1.9897261779604229e-06  -1.0659947336552179e-17  1.1878077658666058e-21  8.0523762719373063e-20  1.8105863628473474e-20  -8.2276637986071043e-39  4.1773662246552686e-39  1.0964314244152439e-42  8.7066218593088005e-31  -1.5834771159744605e-18  5.1032827605130253e-39  6.6387211689801428e-21  3.2403389823028944e-08  -3.9176179247835647e-16  3.1818753109309488e-36  6.8453192318057918e-12  6.0189410889294123e-13  7.0088668295766100e-34  2.0459481895882098e-35  5.7934653812906260e-31  2.0823057175176154e-29  1.7797215384637984e-39  7.7579707847630497e-24  9.6486901885965320e-41  5.6261114329938326e-42  3.2592105351117693e-46  3.1498113092700395e-30  2.8463336751756203e-27  3.5378190230281393e-09  3.0894897473499759e-05  3.1541813607843765e-10  3.4119789349592113e-11  -5.1769568851547865e-15  6.8527734409611041e-27  9.3488670255582240e-11  9.9586500110514400e-09  1.2434059335412563e-33  6.4432827584498963e-08  9.1625350255076755e-15  6.0264978534199170e-06  2.0569108169801947e-08  5.5825624602246856e-21  5.1808482432378868e-17  3.6390276194953065e-28  1.8734726810441859e-41  -1.8857252436693916e-31  -5.1496131869051767e-32  -2.6335211804660918e-43  8.9959516816552846e-33  9.8295706681878127e-45  5.5917948250840100e-44  -1.2803789833375982e-36  3.8025037757800932e-47  -2.1604575041375804e-25  -3.3944968730717150e-13  -2.5485829275263253e-05  1.1734645844917357e-10  -2.7019463101612346e-16  -1.3181977619928274e-21  1.2121572358712940e-42  1.7349662924316430e-42  9.2827135107967329e-31  1.6944642363607099e-13  1.4280813553288465e-40  5.7744237256760997e-20  5.8161237189890413e-15  3.6894967304148190e-17  -5.2546468132108821e-20  -4.6163286581822612e-26  5.7113249365176396e-14  3.0594346768156207e-03  -4.1713623560039642e-32  3.9038375521810298e-25  -1.1831933277942776e-26  7.8236445478431123e-37  9.5169153316817068e-27  2.0403453067337818e-05  -5.4188674879080257e-36  2.6411591451581136e-15  4.3881991060857508e-25  1.0972176143311583e-33  4.9708936239985317e-27  -2.5973338164547605e-28  -4.9759854626332677e-32  1.0507588332767834e-36  -1.0568834665159673e-24  2.5036121468983024e-29  1.9937716378400012e-26  1.9395610292759825e-10  -3.3566564354952992e-15  2.6198694774556680e-30  9.5653569941090659e-12  2.3778925000596588e-36  3.7534915067604292e-39  4.0229852179025478e-18  1.5302266737577445e-24  2.8695136681972623e-30  5.7003761761497086e-19  -2.0276867795287196e-19  -1.4536904306317168e-26  -8.8829451786375814e-40  1.9763220326028627e-24  6.0988706276009065e-22  -1.3225707516133556e-17  -1.9531681365687340e-20  -6.1393682518441744e-17  3.2666986262381052e-15  8.0468760256353950e-11  5.4355258733245808e-24  1.3251701050541307e-09  3.5653045699025865e-32  1.4849697170428718e-34  4.6232606072160626e-33  6.7034604983743940e-14  1.6045541422205639e-05  3.9270350172411104e-10  5.5402944343674352e-23  1.9450271320592402e-05  -4.2551287394336559e-05  5.5640977294935678e-13  9.9937220058841030e-33  -1.9104806605274300e-23  8.2306617344702652e-22  -1.8402686448893436e-05  5.1183275512128277e-30  8.2896530840194429e-23  1.1379943102041613e-24  -4.0603536002020671e-26  1.2702562506721579e-05  -2.9358562082970700e-11  -2.0409670861841276e-25  9.4777433872217430e-29  3.7949684262321467e-28  -4.6581862381087655e-26  -7.8895999118557051e-14  -5.8699795292369387e-10  6.9424446391762357e-22  3.1568446430042730e-21  5.4516578731921596e-14  5.9141350316549003e-10  -7.9495021313053030e-17  3.0822623863714102e-14  -3.7855850635765137e-16  1.5600866160909735e-28  -1.1707987290133008e-30  3.2963107304804210e-30  1.3394297109163097e-35  1.3826159303166652e-39  -2.9377335882040594e-22  2.7597683511966783e-45  -9.8818106086861972e-46  9.6157108618643407e-26  5.6921609065560925e-24  -1.2677992281628099e-23  -2.7004890471912085e-39  -3.8728379654795398e-39  -2.2378372969916239e-41  -3.9671952583879005e-08  1.1432199382136351e-06  2.7151256910486908e-11  7.8410399661587308e-43  3.6569224587752178e-28  1.8769646614889478e-25  5.6031464682730984e-11  -1.7041070009239298e-31  -3.6821398440357086e-16  1.1460294750326375e-20  2.8324249794453021e-20  -1.7078837938692693e-20  8.0795792552537103e-22  4.1419556790133946e-07  -1.6121478259889177e-20  -1.0699565812391182e-34  -1.6884855742752820e-43  -2.3065447059164619e-42  1.1388941612120015e-40  2.1605048830308389e-09  2.2996247646872556e-20  -6.8728948253296352e-20  -3.4897036946256446e-23  1.0678192288961397e-34  2.1909974305937144e-19  -9.9951958383645659e-34  6.5568921336880037e-04  2.6622305648046784e-14  2.4033703955844006e-16  -9.7515808703192517e-38  -6.0287943390347025e-17  -3.0937116218182638e-38  3.8450885746924733e-24  -1.9799043255937352e-08  -9.0073845323447831e-42  -5.0784409371367995e-05  1.3203219853134817e-07  7.4712467082837378e-32  4.1910683717502809e-31  9.2798649194190739e-36  3.5466128856321784e-30  1.1297484334266092e-11  8.1202536420858882e-10  -6.6462238291399942e-42  -2.5549990401931175e-37  1.1149443841514859e-07  2.9704264650144735e-29  3.5024529923788790e-26  1.6525488511450737e-31  1.6248905486955065e-33  7.8625387754999761e-41  4.7708116414359171e-26  4.5238178577954044e-18  -2.0573092574702711e-29  6.0244364811813801e-10  2.4931430568958008e-03  1.5890103007385023e-04  2.3461226664784345e-03  1.2270829778236553e-28  5.2475599015599839e-15  9.1842799835565242e-09  -8.2739089865935548e-42  -1.1120304925815955e-41  4.7125649687888031e-30  2.7207410485540960e-28  7.4958874307660770e-43  5.5447461393752870e-30  3.1678135870677999e-35  -1.6211135034981170e-21  6.6218334041613852e-38  3.9151994376325142e-27  2.0082798655542224e-28  2.2804058503116033e-22  4.8558689445631639e-19  1.1768165048987127e-15  8.9603281325220188e-12  2.8227515783807060e-10  1.8857010324833001e-35  8.1883762499532375e-20  1.8916905832161820e-10  1.0396569937392906e-13  1.7274333046734545e-31  6.1599910665804882e-05  -4.7388400458258581e-11  7.1633675895178462e-07  1.7852409402972978e-09  1.0635736769560509e-32  2.5726531481978840e-09  6.7593021309731096e-17  3.0558329282194392e-14  4.6571548815410632e-20  3.7131626814699451e-23  9.6949423217189640e-41  3.7633069622324336e-12  -1.4410565563651499e-20  -2.2631592501370612e-14  -3.6599990035746686e-27  7.4588947911780060e-05  1.4336023925361794e-07  4.0440556230570511e-35  6.8425826475658087e-18  -7.9611585977705284e-29  1.2325282793373420e-38  2.2276077417106958e-11  3.5429167058081104e-03  -2.4486006329279978e-06  5.3484026163989510e-33  9.3329963226218404e-35  2.2427658976295621e-16  6.5962282494529940e-35  8.2185101382100582e-31  3.0469480476939894e-12  2.8276916106821979e-04  2.1963008930503916e-43  1.5228765694526885e-16  8.7282116215890911e-17  -3.1034630766035828e-14  2.4907490566980708e-40  7.8844317626569564e-16  3.9873803450723500e-13  3.4533827606771103e-26  5.5060684207447811e-04  1.5136024029258345e-05  -1.8855054241569624e-31  1.3423287172332447e-12  2.7940493478779124e-22  3.0363845384807958e-28  2.8696365517618971e-28  6.5463709968548049e-09  2.5018318806113635e-07  8.9446718677996227e-19  4.8666215939631378e-25  1.3408749743248911e-27  1.6204433511373427e-30  -3.1033963472994816e-15  1.2274633173026339e-14  -3.4631497802602985e-30  -2.5129612492977883e-27  -1.4298056434650370e-37  8.5732728649760680e-22  1.3413697485275070e-22  -1.7956530041137357e-24  1.0350645616724361e-24  -1.1047641268816264e-15  2.8933753342505843e-41  -1.8706055218900517e-16  1.1495542843426351e-10  -5.1578077506411205e-33  5.9539573206399482e-41  1.2581405661568663e-05  1.1418154328315703e-22  -1.8927152941362894e-21  -1.7972919470226636e-17  1.5631105816927116e-40  1.6474951821839660e-16  -1.9072015220337454e-07  3.8588822774806880e-27  5.8614457744188692e-40  1.6064492193467102e-38  4.0428771327050844e-33  -3.2854612808998087e-13  1.7922071805666886e-03  9.8925240787610423e-13  -5.4486947351824571e-05  2.7279172658637314e-20  1.9691550773315226e-25  2.0393133724091292e-09  2.7462179871355844e-38  -3.5507240336017934e-37  1.0899730794124813e-09  2.9151971435652995e-28  2.6906523404762620e-04  1.8943907824570054e-26  3.4339356171265269e-03  -2.3691980035874895e-35  7.4909163273528460e-13  1.5695410596364578e-12  2.5429451579416799e-21  6.9366847993481324e-23  4.2583087820231856e-23  7.5802126616942176e-19  2.1022037997596869e-19  4.3591012069435305e-17  -3.7490036896094672e-13  -3.1132571241114403e-32  2.7585874102443161e-34  2.6523315575495463e-37  -1.2632793203988926e-26  1.2585868657733159e-06  2.0318331653515120e-33  4.4022516017517078e-10  1.3315138221049487e-19  1.9616961928178487e-07  -7.6286312491030289e-24  3.6256394893998077e-11  4.3063932922782481e-25  -4.4314729029918313e-33  1.5676710110920544e-22  4.5485815553057393e-45  -2.4238084623332830e-39  -5.8938056772322843e-30  7.7669155832620164e-31  -5.5001735032069762e-19  2.4344339257469525e-34  1.4416506932379306e-34  -2.0007358784208985e-22  4.6348555682291238e-13  -2.4472151988799379e-13  -6.4289326776103434e-48  -5.3054995147700892e-45  2.0604839213349763e-30  -2.1082913242483328e-20  -4.5884032482223895e-18  -3.3986105667353434e-17  3.2224300085612262e-28  3.1873385895308036e-36  5.1119391997484021e-17  2.0595803587440665e-24  1.7448080338706665e-13  5.5392368958225775e-05  -1.8993562207029039e-31  -2.8163942420451806e-17  -9.7245986008904892e-21  -5.8376686856394665e-30  -3.9641930366802706e-29  9.0852678520636534e-20  -6.4802554280690438e-15  6.0876890710494078e-15  -2.9348158265264785e-40  -1.1207462894235586e-25  1.4108162465437398e-18  1.6789819409336424e-26  -2.0334034063133548e-28  1.0572224546543497e-27  -3.6909189758636321e-22  2.5444110693803119e-33  -1.9857139205929455e-36  2.4229334665139671e-21  5.5074077765831294e-45  -9.7937155085565663e-35  7.7290873376336859e-35  1.3342866811968060e-31  -8.8533825930865280e-41  1.5225782189447300e-37  9.2804468703107380e-41  2.5032938943813547e-45  4.3367629602184489e-24  -2.2697857584171826e-38  1.5439571244983864e-06  5.7524428007387275e-06  -1.5785617668149736e-24  3.2522641025635839e-29  1.4878349098197543e-32  -1.3737168979967224e-23  3.6516155947050355e-41  6.7950645563805194e-38  -1.2520175453721378e-18  -1.0834889576892327e-19  -2.0073315681655900e-43  5.6164606329989022e-25  1.7404165114072594e-15  -1.3257984655897171e-14  2.3436115009546042e-29  1.1360647390183262e-27  -3.7240610754344392e-41  -1.1982032902393028e-08  2.4486660017848829e-06  3.8305290825781247e-09  1.6689708316527274e-18  1.6443569060138261e-44  1.6701052582003635e-24  -2.0275813583612032e-05  1.7502059273085097e-43  6.5078308847399209e-27  -2.1013515196418145e-26  -3.3762674201366732e-28  2.5495831907653991e-25  3.8311184196357200e-42  7.3533607379640192e-20  1.0784537560976974e-31  8.7332008686290246e-41  5.4052913545100207e-04  -4.1358351627660378e-12  9.4840458762289647e-18  1.2842623225952323e-38  2.1198863640128852e-43  4.6132649433715113e-16  1.5924669712857736e-25  -1.1574430571407126e-13  2.7537771867916229e-25  -1.5706668840770374e-42  1.2817536821935638e-14  2.4015116369491710e-05  7.5068775895326246e-09  2.9781033050901248e-23  9.9801019009323087e-09  5.8112691117323713e-15  3.9172361305388658e-16  -3.8072002673513375e-37  4.2808277231864505e-30  -2.2375581672207025e-10  2.9314568115155396e-10  1.7018167235420334e-11  -1.9591580281464190e-14  -5.7939512528043008e-14  3.9657001962704090e-09  8.2341603202582359e-12  5.1458038484058259e-43  2.0342063492882619e-44  3.3984996908396982e-15  3.4086288907042642e-12  1.2557438950553107e-16  2.9726099536958182e-11  -2.9135752452171803e-07  3.2153019368100570e-26  2.4649593071058887e-39  7.3951884174887616e-19  2.9148084824125638e-35  -9.7570087754731247e-42  6.1431143267092733e-38  5.6443406984627982e-22  2.7674218217488455e-35  -4.6440899400715468e-13  5.6777162869239558e-32  -2.0102429756060027e-21  5.7217109433366238e-27  1.0304849856132391e-28  1.5543696116714242e-10  4.4629004176812683e-10  4.2865390894125524e-33  -2.3151724490110688e-23  2.8544601752384087e-39  4.9926279962792936e-10  -1.2846072003011311e-24  2.6601826264766351e-46  3.0972336043810620e-07  3.8913301455333647e-06  -1.6443712592414874e-26  -1.0086709570699496e-31  2.4997164998760414e-13  2.5684460644626098e-17  4.9715155042685986e-36  4.0289748363644267e-12  1.2649596152714139e-40  3.1751424163221217e-37  7.7466211167598428e-19  3.6146014837305881e-35  7.1322219644187948e-04  -3.8621571785312064e-16  2.3145705628964117e-25  4.8265510962469241e-23  8.6087894596775487e-18  8.2865097719007646e-32  1.0781174317089874e-30  7.8325941718149959e-21  3.2196283050444791e-10  4.7229858420044792e-20  -9.7270018889071252e-30  -6.2149747658905080e-40  -8.6437734745893704e-42  1.3602068964897692e-23  4.5269248459856460e-09  2.3187767155308783e-30  2.3588083911245610e-41  2.1658890689381450e-21  1.2063565801516610e-41  -6.6191863115959334e-32  1.2665917182501942e-38  2.1402897772255114e-28  8.8737845056089957e-30  3.4100197889921056e-32  8.3209826755586950e-15  -3.1714483321501745e-31  1.0728085600498262e-42  -2.6891261559766512e-32  2.8589996564500532e-29  -3.4385148417759382e-44  -2.2457336994094358e-43  -3.7684662754955471e-43  -1.0998379821276440e-06  7.8388161677757127e-09  8.9203559622103550e-10  4.9352569133027971e-33  -9.0388811004240790e-05  -2.4982233701684586e-17  -1.0142553987856669e-34  -4.8869369883434759e-20  2.6508255319660020e-30  3.3847640326398399e-11  7.8728312328762451e-26  2.7389675955070818e-47  -1.4209269550724746e-13  -8.3644168146603797e-27  -1.7203931171883930e-08  4.0885867044761309e-06  6.9592980697762647e-35  2.1162246858310512e-43  6.9925121595561389e-44  6.0631884989219203e-44  5.3623527350660393e-12  1.4726185099397867e-32  -4.7357718392236453e-05  1.2880872472856533e-42  1.5246326671567323e-42  2.2907191622984409e-47  6.8555118279594367e-33  2.6804416711592209e-25  3.9263456494766123e-14  -3.8011988781667086e-30  -8.8384569802916211e-23  4.1704313920690759e-30  -2.8094713912479017e-07  1.9975810875196397e-04  2.8637940019177731e-06  -1.1002517822763742e-36  -3.2638525693526277e-13  1.6263704877410033e-06  3.7859178112207849e-04  -4.1745416977242681e-21  2.9863192592446398e-08  -1.8612236561066969e-15  6.4606999218269646e-23  5.9322832539865102e-12  3.6821808635004712e-13  9.1142823128042371e-15  6.2461130485630249e-10  1.0435257118973690e-03  4.4661059362443873e-03  6.0955458043385384e-39  1.3686764898632504e-23  1.4074701658959690e-19  -3.1438519344474001e-36  7.2219684123137447e-05  -1.7994373816164051e-41  5.9772471300317935e-13  1.1366450783282008e-21  1.5193345068112412e-10  2.0910669942956030e-04  2.3034831987551149e-17  1.1515758905326002e-20  5.8373693603117639e-24  1.9608250323985308e-06  1.7515173092583279e-08  2.3579020711488009e-35  -3.1320083039026279e-39  2.2731864642363156e-04  -3.5964677210254563e-36  -9.3617543741292775e-39  4.6494254694120636e-11  9.6085499483444891e-25  -3.6721543448783244e-10  -3.8915461422108697e-24  1.3753167882888435e-08  9.8715626131792770e-37  3.4041844488309492e-15  3.2341597812781699e-16  1.7262003954251756e-26  -1.8715040440690654e-28  -6.0302475580228517e-30  -2.9665120974046655e-32  -2.4309962230590458e-32  -1.9040541489444579e-24  8.1501590098135419e-11  1.4876371389916934e-22  2.4721644617536380e-17  -4.8784111274926382e-18  -1.2373034261774150e-18  -4.2367567970430386e-19  1.6722036157154890e-29  -1.6260924923121360e-20  -5.8752647942945258e-30  -1.3701209827959717e-31  -5.7135215453454704e-22  4.4569550064033562e-21  7.7596329736514649e-14  2.4063204970267698e-14  2.4042087171605716e-16  5.0679019495389895e-12  -1.5593316488402624e-40  2.1700069176129259e-26  1.5568872678197752e-26  -3.7297549629626953e-25  -1.5737616866739374e-24  -5.3002923398966346e-26  5.4781522518131494e-30  2.1714932449385757e-20  2.6720002171621582e-25  -3.0523003302964653e-37  -1.2594747947937762e-42  3.1699570482853211e-35  8.5459162413875544e-16  5.8101084011659820e-10  4.5930357319682286e-09  3.2976526938000701e-21  -4.7767158875051538e-36  4.4881872848804024e-08  3.9799882116409375e-23  2.1416620074765674e-31  1.2780553603134322e-03  2.3480765878125952e-34  2.7416952098790746e-33  5.0857518325247910e-33  2.5464541276780282e-40  5.2070997574480075e-37  3.4037203647521916e-29  4.3893131663551448e-11  3.8985874604286756e-18  3.1115237652201689e-16  1.9383080732595505e-08  1.1547191593881271e-25  2.3948642449219660e-28  2.1437062982305640e-18  -1.5757334662211085e-43  2.6435114032644442e-19  2.2795349963167044e-15  3.2889737584166999e-10  2.2373917683747598e-09  -1.4336206932833857e-26  -1.0282549974660460e-29  2.8709593024657180e-34  2.4790332018525058e-30  8.6265067786829829e-34  1.5727851781696169e-41  1.8631756812