<?xml version="1.0"?>
<VTKFile type="UnstructuredGrid"  version="0.1"  >
<UnstructuredGrid>
<Piece  NumberOfPoints="6486" NumberOfCells="12696">
<Points>
<DataArray  type="Float64"  NumberOfComponents="3"  format="ascii">0 2.5 0  0 0 0  2.5 0 0  2.5 2.5 0  1.25 0 0  2.5 1.25 0  1.25 2.5 0  0 1.25 0  1.25 1.25 0  0 0.625 0  0.625 0 0  0.625 2.5 0  0 1.875 0  2.5 0.625 0  1.875 0 0  2.5 1.875 0  1.875 2.5 0  1.770833333333333 0.7291666666666666 0  0.7291666666666666 1.770833333333333 0  0.9375 0.625 0  1.875 1.5625 0  0.642361111111111 1.163194444444444 0  1.341594827586207 1.883979885057471 0  0.46875 0.46875 0  2.03125 2.03125 0  0.3626104797979798 1.513178661616162 0  1.381740196078431 0.4564950980392157 0  0.9375 2.172619047619047 0  2.172619047619047 0.9375 0  2.096354166666667 0.4036458333333332 0  0.4036458333333333 2.096354166666667 0  1.684027777777778 1.163194444444444 0  0.3418803418803419 0.8693910256410255 0  1.642742622813391 2.162164207604464 0  1.275619849389031 0.8465650753054845 0  0.9136284722222221 1.434461805555556 0  1.732437511238546 0.3406962303960658 0  0.9714402568595876 1.029779313093998 0  1.52281746031746 1.485615079365079 0  2.1875 1.71875 0  1.06819722569879 0.2997236128493951 0  2.136114211309524 1.303478422619048 0  0.3125 0 0  0 0.3125 0  2.5 2.1875 0  2.1875 2.5 0  0.3200021620376328 1.192323085056694 0  0.6738456129277992 0.8304377375553881 0  1.757891808928991 1.861952730357003 0  1.5625 0 0  0.9375 0 0  0.3125 2.5 0  2.1875 0 0  2.5 0.9375 0  0 0.9375 0  0 1.5625 0  0.9375 2.5 0  2.5 0.3125 0  0 2.1875 0  1.5625 2.5 0  2.5 1.5625 0  0.7448220909826522 0.3003573636608841 0  1.027298850574712 1.871151477832512 0  1.331260495098891 2.197262878816185 0  1.207917681892289 1.582765010956622 0  0.4339993447432606 1.801186844743261 0  0.6337298768939392 1.443093039772727 0  2.049851190476191 0.6826636904761904 0  0.6584821428571428 2.219122023809524 0  1.89575676467455 0.9798457973793544 0  1.437570562095628 1.059380588255917 0  1.502090052505845 0.6987070896496241 0  0.2040860661083546 1.705323965099331 0  0.2083333333333333 0.46875 0  0.5070952039991439 0.2211150679997147 0  0.6916302856529919 0.5813591430410241 0  2.265625 1.953125 0  2.2265625 2.2265625 0  1.886424081252096 2.243391360417365 0  1.40625 0.202164758520858 0  0.2269345238095238 0.2269345238095238 0  1.152730869673694 0.5225850378741401 0  1.885631899587912 1.312095130148776 0  1.614808884009367 0.9049784971014416 0  1.890095442220658 0.5126535558463003 0  2.323168682795699 0.46875 0  2.268811725689575 0.2304742875213018 0  0.6002389442105756 1.967426444210576 0  0.1768313172043011 2.03125 0  0.2311882743104251 2.269525712478698 0  2.03125 0.176831317204301 0  2.280262553344767 0.6954945504579233 0  1.979219539285994 1.809922269642997 0  2.336309523809524 1.09375 0  1.09375 2.336309523809524 0  0.9314042474388009 1.662973812215543 0  0.1634067999087722 1.40625 0  2.337090640094896 1.40625 0  1.141616997467638 2.069311773587991 0  0.46875 2.338939559681489 0  1.542440307908715 1.734944797244472 0  1.556713687786879 1.956977865354753 0  0.8264238995344066 1.975424467820646 0  1.466326331454725 1.275271369760862 0  1.655675324257095 0.5444159974393489 0  0.3385416666666666 0.6479255698005697 0  0 0.78125 0  0.5236073939200119 0.984090461540625 0  2.091665741047893 1.519793517904215 0  1.71875 2.5 0  0.5356538886262603 1.623137930505009 0  0 1.09375 0  0.1932884281517095 1.015625 0  0.8569313582417669 1.2198915584249 0  0.8876981284879677 0.8329884081524883 0  1.115618488474214 0.7219586973356271 0  1.186950366204949 1.043465130075318 0  2.057459118787237 1.110823087309335 0  1.830651283878689 2.049810069572418 0  1.689107969301489 1.367247437031697 0  0.4921048768039656 1.298643370653124 0  0.8213975694444444 2.336309523809524 0  2.03125 2.5 0  1.049729400480002 1.283723261332814 0  1.308101375801673 0.6489479469700392 0  2.5 2.34375 0  0.4968777175037714 0.7562964879736076 0  1.40625 2.5 0  1.501347663534097 2.307027627307738 0  1.602813712048603 0.1926218191360736 0  0.8393082906308107 0.463778306132633 0  1.682663349152719 1.598471865581041 0  0.7774174680851571 1.560004941327907 0  1.554204170364662 0.3898593897892066 0  1.842184459051087 0.186443880058197 0  1.358107417651776 1.696381759610015 0  1.18859291992392 1.77598670078022 0  0.1875331222687418 0.7609599743339348 0  1.339536743965101 1.422080365801479 0  0.7788179348750389 0.9955343414928611 0  0.9062978492805438 0.1919636509126373 0  1.256007360640958 0.3160320559396114 0  1.09375 0 0  1.174986727221844 0.1594990293443933 0  2.34375 1.796875 0  2.318026474511116 1.589177949022232 0  2.34375 2.5 0  1.672742954892153 2.332882724550692 0  0.2683637361947215 1.874801596909639 0  2.174770749820102 0.5581009131310781 0  1.443279522965991 0.8870068372898454 0  0.3385416666666667 0.3571428571428572 0  0.78125 0 0  2.060421048269335 2.314363248763811 0  1.088078737088509 0.8967352118723447 0  1.087825368444708 1.454931510884769 0  2.018308232129541 0.8548495425854904 0  1.943987311736842 0.3246298523011434 0  1.71875 0 0  1.85337849796276 1.144833312386208 0  2.3486328125 2.1044921875 0  1.407588788651747 2.042968789119587 0  2.336309523809524 0.865366648092144 0  2.34375 0 0  2.5 0.15625 0  0.15625 2.5 0  0 2.34375 0  0.1638044648294291 1.242263417405867 0  0.356216654757926 1.032569427322806 0  0.3188217956111817 1.355736727000647 0  0.5924956460852111 0.36112522004736 0  0.6594216488965849 0.1603472116132387 0  1.841804599497131 1.72214349266521 0  0.15625 0 0  0 0.15625 0  2.115898634821499 1.894570904464496 0  0.7821877980253907 0.7129993435924866 0  1.003820447087786 0.4516053462784233 0  0.477562948779147 1.138333049293613 0  0.719493678605015 1.305655360135975 0  0.9772457618587566 2.020350128938537 0  0.8764738248887107 1.826219722709673 0  1.254787875123819 2.339010653832026 0  2.343597354852534 1.249982759769001 0  0.78125 2.5 0  0.46875 2.5 0  2.5 1.40625 0  1.09375 2.5 0  2.5 0.78125 0  2.5 1.09375 0  2.03125 0 0  2.5 0.46875 0  1.40625 0 0  0.46875 0 0  0 0.46875 0  0 1.40625 0  0 1.71875 0  0 2.03125 0  2.5 1.71875 0  2.5 2.03125 0  2.005424054645407 1.653223486966518 0  0.1538730573856537 1.559850281736677 0  2.33984375 2.33984375 0  1.166539506212474 1.922878979538754 0  0.3914885633949916 1.65887232812171 0  0.5795503163042564 1.766243562569382 0  0.399533125920212 1.946786875081388 0  0.7866324979014098 2.127719094551316 0  0.3654683023546834 0.1495701132219454 0  0.1527388747131078 0.6116379440619215 0  2.013737577140188 1.391056634712135 0  1.17635437372994 2.213329084238133 0  1.737118141866284 1.010577140843115 0  2.200707118087222 1.164723314085963 0  1.697018908736685 1.993548551451517 0  0.5387621649009668 0.6070503962352419 0  2.032805785855952 0.5330427622570983 0  1.082699501358059 1.667818725183932 0  1.503819781540653 0.5468420196858188 0  2.015409142866072 2.175941657590429 0  1.752057611265444 0.869642097111018 0  0.612251684107783 2.356045720700959 0  1.902817102342857 0.6607642211999982 0  2.159616561739693 0.7867739969338844 0  0.5120038350106624 2.197302352398502 0  1.888200216011548 1.919501662489862 0  1.495909909726654 2.16028358757309 0  0.489139876703609 1.443203008943564 0  0.8819175670410521 0.3301172743913011 0  1.882591144370812 0.8155965192707721 0  1.133979796994841 1.172526771862882 0  2.206217447916667 2.084147135416667 0  2.20361328125 2.36279296875 0  1.395746985657004 1.556054166359645 0  1.704383111516207 1.734750450338683 0  0.9575737847222222 2.36274223823052 0  1.035150984253136 0.1302833343179028 0  1.383966125325753 0.7651479963479179 0  1.64003252158672 0.6824316405528895 0  2.22550785055421 1.487078576356817 0  1.760964431499756 1.48495222505201 0  1.276460980673788 2.004207003584658 0  0.1341477688427096 1.828777507920502 0  1.542261434180652 1.155296658359034 0  1.334627911613854 0.9696897472490321 0  1.30794231473696 1.119420615785191 0  0.7028260459857245 0.4438906910721139 0  1.625757433094055 1.84268057552138 0  0.9818707849053143 1.165603626132254 0  2.0086489901463 1.243134585689553 0  1.934584460420609 2.374094051915812 0  1.798434376789567 2.38671361912528 0  1.206314791201715 1.382064292497919 0  0.6333752893366955 0.7023738550008095 0  0.7796219811205605 1.42573253164258 0  1.564399711917382 1.026040828857629 0  0.3385416666666666 0.4889012896825397 0  0.1041666666666667 0.390625 0  0.989112246382566 1.543537365516289 0  2.025724425454636 0.9846960595520872 0  0.6602885475034063 2.086117390485779 0  1.607130551925032 1.267198646640915 0  0.1317864544877056 0.8896173683400176 0  1.755387840017567 2.230364320056445 0  1.301540702984401 0.1216289692748247 0  1.433170657577442 0.3331052752740999 0  1.500459610550388 0.113513924782439 0  0.6494291520606965 1.029586599619295 0  1.010146149868299 0.794897284196169 0  0.3700844198238017 2.235390157870766 0  0.3360891767780704 2.36656279435396 0  1.876856241037701 1.437150669863757 0  1.778674102957329 1.245979347269706 0  0.5472829890977179 0.1005517127039925 0  0.4669074189005698 0.3416784232954367 0  1.472765289289269 1.850899166481903 0  1.555853593327178 1.608452097912802 0  0.6708955559113426 1.646561631116984 0  0.8164699620322933 0.5924479455478063 0  0.3167738989468366 1.758696809749795 0  0.2788007305565096 1.605499483471246 0  0.7821720982350511 0.181524936294752 0  1.376812251214195 2.313340247908297 0  1.785652202614777 0.5962261755537186 0  1.761467296310972 0.4679567244718574 0  2.2265625 1.8359375 0  2.3828125 1.9140625 0  0.5279531607054191 2.071552361614785 0  2.397573269551114 0.234375 0  2.383578172599618 0.3589298466020009 0  0.1024267304488855 2.265625 0  0.1164218274003825 2.141070153397999 0  0.2696857594953064 2.135405441512016 0  2.164961300137334 0.1375322943529536 0  2.137757548369486 0.2724194778647587 0  2.238873711826398 0.3626419179496562 0  0.1001414910226386 0.234375 0  0.2176339285714286 0.3478422619047619 0  0.2503620791333544 0.1061694061057066 0  2.336445461915368 0.1250451055247424 0  0.2154004640409726 2.3918124
[...]
<PointData  Scalars="f_124-3"> 
<DataArray  type="Float64"  Name="f_124-3"  format="ascii">1.8912790383845083e-02  1.4718570728975489e-05  1.9214696376297627e-06  5.2780068263183324e-03  1.0712278862647910e-05  2.6372349425348002e-05  1.9717359382048345e-02  2.9173002439689032e-02  1.1650165852906973e-02  2.9072710350168125e-02  1.5350410189228321e-05  1.9489857782601410e-02  2.8367302140847386e-02  1.5456403282464665e-06  6.0287328278002481e-06  1.4015383653284033e-03  1.5957139616332910e-02  1.7671683519774262e-05  2.8817823383562747e-02  1.6905456257352079e-03  4.4790616967215592e-03  2.7834968106884971e-02  2.5061728509976212e-02  9.0327097884355303e-03  1.0750524244598637e-02  2.9131642274197230e-02  1.4266760392722795e-05  2.6018385753980369e-02  1.0813298235897056e-05  4.1439677179621915e-06  2.6703474779381155e-02  1.3233909628979591e-03  2.9032358355276577e-02  2.1685965989773581e-02  1.3029226718988009e-03  2.6727545491764714e-02  6.9828802386032960e-06  1.3349419227227649e-02  1.0787366245644855e-02  2.4945330860016652e-03  1.6518997527100398e-05  3.2026664874783062e-04  1.6371593937180243e-05  1.0505525503930904e-02  3.8002422517129661e-03  1.0567680998587160e-02  2.9197560560855297e-02  1.8042159089740606e-02  1.4371108437676850e-02  8.2904361736221619e-06  1.3123230133251893e-05  1.8755460077368311e-02  3.6657632733273475e-06  2.1667439346802088e-06  2.9178950693036682e-02  2.9101303533669760e-02  1.9524232740055464e-02  1.6976526495303601e-06  2.5272188369585738e-02  1.8723197202070455e-02  2.8356328146412628e-04  9.1263172230295615e-05  2.8063438246802342e-02  2.4834471232741052e-02  2.3066335979556200e-02  2.8765720053834917e-02  2.9021912802234727e-02  5.0340586326744954e-06  2.5046562982951086e-02  9.1274192477722773e-05  2.2955402366586458e-03  7.3747128662456540e-05  2.8960260357438740e-02  2.1284326403947704e-02  1.7747303462045292e-04  5.2915308867066621e-03  4.3203344447526821e-03  8.7812274511848698e-03  1.6915341292880890e-02  9.5533342404534042e-06  3.2608890696397192e-03  9.6908864396953999e-05  1.2224696247487524e-03  2.8187537592036798e-04  5.8513888481647485e-06  2.4606495119111173e-06  2.9595562820311497e-06  2.8018821898508489e-02  2.7298662991670004e-02  2.3827125755062462e-02  4.7403450507082507e-06  2.8168978803332528e-06  7.3949916286038964e-03  1.6431906438266787e-05  2.3057986260443485e-02  2.8283484499036112e-02  2.9158696162797565e-02  2.2055726490551074e-04  2.6866638209263990e-02  2.2624535640805358e-02  1.7459733023221652e-02  2.1696803401130917e-02  2.8031240308014686e-02  6.0778393581397477e-03  9.5082744627063848e-06  2.6263854416695247e-02  2.9174102131061322e-02  2.7742140268208856e-02  1.4463130286950707e-03  1.7767417656892777e-02  2.9062008904331620e-02  2.9177359754878261e-02  2.9206208514381202e-02  2.4132693260860132e-02  8.5113671262778481e-03  1.2024923384495732e-03  6.8344437627271227e-03  1.1221971524324474e-04  1.6105392899403489e-02  3.8674491945844204e-03  2.9137298933459933e-02  2.2962062691021190e-02  1.3537136563679575e-02  1.9697778025560761e-02  1.4768056828182995e-04  4.8840837849729634e-03  2.3541474465528109e-02  1.9353079801042995e-02  2.2340258354622285e-02  7.9990718972318026e-06  5.7373942005744302e-04  9.3959485941744782e-03  2.8802418315511117e-02  8.7833141987075727e-06  6.0782969119495115e-06  2.1695626477227656e-02  2.6457999626682376e-02  2.9420672945368265e-02  1.4270497452818019e-02  2.0024816375197783e-02  1.4778253699514003e-05  1.1768798820457461e-05  1.1906820281213540e-05  1.1513565100959807e-05  1.8071651222565186e-03  7.6154095137283718e-04  7.5590146874371742e-03  2.0398420135032784e-02  2.8480587489256096e-02  3.4582419634314964e-06  6.6481710464328953e-04  9.2411883930724054e-03  1.4232386178427258e-05  1.3282883755060784e-02  4.9278921366808018e-03  2.3245398466861397e-02  1.2978944509870413e-05  5.3161650201613053e-06  7.1910423117073218e-06  4.6510155679015336e-04  4.9605311937978586e-03  2.4958477712977493e-02  3.0144117496172592e-06  2.7265813172403902e-06  1.8453592725933608e-06  1.8871435861024240e-02  2.1855484788727855e-02  2.9174607361896612e-02  2.9197436044555453e-02  2.9170235315950727e-02  1.0747408019321917e-03  2.0659299495452818e-05  8.6006657646732227e-03  1.3930820067611288e-05  6.0286407874111491e-04  6.1334244153523811e-03  7.3219778811587539e-03  1.3514020454806025e-04  2.9014191770633874e-02  2.8078787034579659e-02  2.7632711949252545e-02  2.8556968464449169e-02  2.2986606807991163e-02  6.0307902637721536e-05  1.9489253914874521e-02  1.8913791627821745e-02  9.0537417590862975e-05  1.9647563500413336e-02  1.6174761703658716e-06  5.9416109586650820e-06  4.8741047481509357e-06  1.5852554741799377e-06  9.3895550752156610e-06  1.6424533577137569e-05  2.0908549585488104e-02  2.9158169647618200e-02  2.8926845627351976e-02  2.7371038969915287e-02  6.8599983683439233e-04  2.5118191794135550e-03  3.8184834996512220e-03  2.9103261305212021e-02  7.3049945491310934e-03  2.7305663917354197e-02  2.9038648150231047e-02  2.8853144400939980e-02  2.8112942660825979e-02  2.6600803633342145e-02  1.0174646099055572e-04  2.9580385239494245e-02  1.0512635752094742e-03  2.5318107948023989e-02  3.2214306106092687e-04  6.7267180262686754e-05  1.8700103566659857e-02  1.3730138048953620e-02  4.6627151839419684e-06  2.6870761167484679e-02  1.5578800992665840e-05  1.3238269376205376e-02  7.4729519336283893e-05  2.2329140121169457e-02  6.9668890396536349e-06  4.6303865753912249e-06  2.5390031990625006e-02  1.2147887642825775e-02  2.3754182918534358e-02  2.9150286403611135e-02  5.8823469842561188e-05  1.8670453412382620e-05  1.2929220594342565e-02  7.4766544964249898e-03  1.0060621277831017e-02  1.6662709710473775e-02  1.2705289575093853e-02  2.2405410100229620e-02  1.2584120062111196e-05  3.1914793635399812e-04  2.3859605531977485e-05  6.6210232191081118e-04  5.0201159964129403e-03  2.6433644511973411e-02  2.8659121566629909e-02  2.4323222037117556e-03  2.1611736307136902e-03  5.7840846857561343e-03  1.4069249052940729e-03  1.7630900651723444e-02  1.8330649939339229e-02  4.3941599063434931e-04  1.5903165110960567e-02  1.8079898868066459e-02  1.7647435241899420e-02  1.3932352588283571e-02  2.8342394838529471e-02  9.6821813229846891e-04  1.9276768238812067e-02  1.5804116861237973e-02  2.6949340312779218e-02  4.0943004192694244e-05  2.6939336658159899e-02  3.3659642917136284e-03  2.9217958411161718e-02  1.9772966924141697e-02  1.0349151786420432e-05  9.7348855080700633e-06  8.7507741960199579e-06  2.5745549778696693e-02  3.9577664569011451e-03  2.4664256486127720e-02  2.1723943855416712e-02  2.4603669497728800e-03  1.3869851930109591e-03  1.8344775722567648e-05  2.5250507523745858e-03  2.1889897572680436e-02  1.3249548236469415e-02  2.8994240028074578e-02  2.8648568031384787e-03  2.8866617987172358e-02  2.9079644114965261e-02  1.7942464580277601e-05  2.2966770822638781e-02  7.9714344554486901e-06  6.9601842188948946e-06  3.4378911652079231e-03  2.4117226649519397e-03  2.7075879439028557e-02  2.1409053047727489e-06  2.1843234937349739e-06  2.3882840861275102e-02  2.6139834169262497e-02  2.6189426386333124e-02  3.7506290827433036e-06  3.9123339735348879e-06  3.1764003153808656e-06  4.6307856959324940e-03  1.3175278766011985e-02  4.5991976605175548e-05  2.5966245835854876e-06  2.0979581227831029e-02  2.5285944747351873e-02  8.3565960257463962e-05  7.1068189454691443e-06  5.7882453953730169e-04  2.2447080853942428e-05  4.4227571287736845e-05  2.7759678637515810e-02  7.2654751479445988e-03  2.4640878931816341e-02  2.8034608494182062e-02  5.5209029755168454e-06  2.1639154341554835e-06  2.1525300830582768e-06  5.6363781440607452e-03  4.6179330683834676e-03  2.8423739549336954e-02  2.8422673588881862e-02  1.8614432581200090e-04  1.4836514391811319e-03  6.8463316965925022e-03  6.1390467966753639e-06  2.7298311871520216e-02  2.8809313816211282e-02  2.8258159939807088e-02  3.7078208255672693e-06  1.3838457684925204e-05  2.1529728687663131e-05  2.6004417837626078e-02  2.9188570169005255e-02  4.4888690831762185e-06  2.9330495045903304e-02  2.8792815810488606e-02  4.1798402422114278e-03  9.3210462721844307e-03  5.0234842884343441e-06  2.1217131228707640e-02  2.9148586681252611e-02  2.9168303985195328e-02  2.4148889116150973e-04  1.9532019780603560e-04  1.9311005646004405e-02  7.7252727707279965e-06  6.6821029798232081e-05  1.5381662383616306e-02  6.5467566845771087e-06  6.1455484757634853e-04  2.1759917009645125e-02  4.7456475876323746e-03  2.1372965128497960e-02  2.4196539828582223e-02  2.8877048430249682e-02  1.8758421122052272e-02  2.6868469764890518e-02  7.9302128081770559e-06  2.9040042319866219e-02  2.9175811467687020e-02  7.2254111721503417e-05  1.8480975987765950e-05  2.0886434145719328e-02  2.0743478719930625e-02  6.1349274312038956e-03  2.6812549722400867e-03  6.5952816500800080e-04  3.2599548640821309e-05  1.2271160390204469e-02  8.6581617117400553e-06  1.9229221267232231e-02  2.7252464275849757e-02  2.8207488085940778e-02  1.0306094499230091e-02  2.9141532102157457e-02  1.2612556780606861e-03  1.0366546545489306e-02  1.7734339795294238e-02  1.2600165158563530e-02  3.5301139064084961e-03  2.0298621278339542e-02  2.4157765553143123e-02  4.7027534077590302e-03  1.2215211512496625e-02  8.7234601962357990e-03  8.2637807646097084e-06  2.6909661851704139e-02  2.7612263685094982e-02  2.5316155421769543e-02  2.7673594230379517e-02  2.6677556110631027e-02  6.7018610538873646e-06  2.8107985227874686e-02  1.8591468017394078e-05  1.4086566026554653e-04  2.5041120121574410e-02  2.9283928147010078e-02  1.3923359667882150e-02  6.7442866445734453e-03  1.0644038217732899e-02  7.7676391584590105e-06  1.4336142202893184e-03  2.3671799649719511e-02  2.3633298986376096e-02  2.9183121921718319e-02  1.3920965802621146e-04  3.4665011974972257e-05  1.8865696164324739e-02  1.8674202964741229e-04  2.0579151329484582e-02  2.9075051867675152e-02  2.3593289455124844e-02  2.2290451979664046e-06  2.8663371441288676e-04  6.8805752258541998e-04  1.9764808201203285e-03  3.4119336636758422e-06  2.8965953794083170e-02  2.9114492828763234e-02  2.4446832010489670e-03  2.1608869203762503e-02  2.8183949019078950e-02  1.9114268368667597e-02  1.5657378221551867e-02  2.4235735518118775e-02  1.0106950461174135e-02  2.2453811032275960e-02  2.9082542425249890e-02  2.9181922202652387e-02  2.8594208760465756e-02  8.8667472378056150e-03  1.5544070306302322e-02  1.3118391837146130e-02  1.4751587281852672e-05  2.1222199060620506e-02  2.0982852316253679e-02  2.3650471373910780e-02  4.6414804527715549e-06  1.0831781790810463e-05  2.7773621622866857e-02  9.5301527636247110e-06  2.3677274742141166e-02  1.4888302149382165e-05  2.8170274587212458e-06  2.8905091375349946e-02  8.5769470664442786e-03  6.3304781495127828e-06  8.5824547123425302e-03  1.9943838017696950e-02  1.3410364897333184e-02  9.7171535158316149e-05  1.9408720468649483e-05  3.1904092662457293e-06  2.5405233731005138e-02  2.9180929265847800e-02  2.3750426918078570e-02  3.7296088679646278e-03  4.5518753885744176e-06  1.9472915125180672e-02  1.9420979875837705e-03  2.6416871067642955e-02  2.0078092495531292e-02  2.9232165828978796e-02  2.0900055034582834e-02  1.7080124796400172e-05  2.9177756501614142e-02  4.2135691497112879e-06  4.4755710908274037e-06  2.9170088066699656e-02  2.4242381515428339e-02  2.8749190267978824e-02  9.7343408627973624e-06  2.9194516852558618e-02  5.3614475312289291e-06  3.2304716690126562e-04  9.8084559861341854e-04  1.2328068669024844e-05  1.1447257763265350e-05  1.0283754067456688e-05  2.4740821665675036e-02  2.6315004991854234e-02  2.1278101364369553e-02  3.5986601787983768e-05  1.8810744836608936e-02  1.5209443865238603e-02  1.0923206454581872e-02  2.3837582985910953e-02  2.8806956125408237e-02  1.8324092800555938e-02  1.9882678900332898e-03  1.2593378131186628e-05  2.7130922994562739e-02  2.6308461555228070e-02  2.8964195532006309e-02  1.0379032998300795e-05  2.6790789377237781e-03  6.3391701215149369e-04  1.7516335253429313e-06  4.3156332285817616e-04  5.9132576234028223e-04  1.7851138178863857e-02  2.8271488046033667e-02  9.3850072919872494e-03  5.2826138527644564e-06  1.2585765503813045e-03  8.7244495375792697e-03  1.6729643615387919e-05  1.5403884873550878e-06  1.9347393048458011e-06  2.1254118206489675e-02  1.3174110202578201e-05  2.8640356659667354e-02  2.8769984211538067e-02  1.1799971389773735e-04  1.4134755478342977e-02  4.0730783649995967e-05  2.5535476661714029e-02  4.7400152444076180e-04  2.8866929936193910e-02  2.4661167986474722e-04  2.8709148373858597e-02  2.7854160746824948e-02  2.0477794236549163e-02  2.0908321349085990e-02  1.1884244431299606e-05  2.9107164093368082e-05  7.7213383166646740e-03  2.9072293862986350e-06  2.5400152545168898e-02  2.8468588208215923e-02  5.8366802697467040e-04  2.3671902332929535e-04  5.5980043660145721e-03  2.7396616306856289e-02  4.2341854199152732e-03  4.1080265563168459e-06  1.1002001886977093e-05  1.5721293406628106e-06  1.5110914353709862e-05  6.3380403467445578e-06  3.3587810270624314e-05  1.5265607946783237e-03  2.9286224388749243e-03  1.0051904073420349e-03  1.8999896258552318e-06  2.6207832128441248e-02  3.9637177638477436e-06  2.9214225969095921e-02  2.9177730419462217e-02  4.7009332560490820e-04  2.1375683208686637e-02  1.8779314936404168e-02  2.1447096077043598e-03  4.2867051057167392e-03  6.9730282804358040e-03  1.0977538906325579e-03  1.3623511635733076e-03  2.6382712261050844e-06  2.5406349746501942e-02  2.8593295041303559e-02  1.3363660635108010e-04  5.9616048332896314e-03  2.3742149601368039e-02  3.1492755428739229e-06  7.3308767703140262e-03  1.7205489730563531e-02  8.2128250679576360e-03  2.7578262604180247e-02  2.1389044788324262e-06  6.7149957026060832e-03  2.9178765912131515e-02  1.9041319748924312e-06  2.2550013994689054e-02  8.7029303180831534e-06  1.1208563493031628e-05  2.4679106721085350e-02  5.5627406501197246e-03  1.4210806056022039e-02  1.8540055330971084e-02  3.3894672122740089e-03  2.9334681736800077e-02  2.9116540097247949e-02  2.3964395912914313e-02  9.1830831285195065e-05  2.4102996539018050e-06  2.8736493916158734e-02  1.7576373804057268e-02  3.3766865129782498e-05  6.3196344186353378e-05  1.8809650952145529e-03  1.3418055441749800e-02  2.9247913001512939e-02  2.8839222500179278e-02  1.5594919016312164e-02  2.9184784023677929e-02  4.4242380304378662e-03  7.0818797129262851e-05  3.6094230357846472e-04  4.6842458212641112e-05  9.9796384354542745e-04  2.9166022335697223e-02  4.6662559316059234e-04  1.6020301855471539e-05  5.3402482590439772e-05  3.8883736904559464e-03  5.9484556108803930e-04  8.5042437784291078e-06  3.1878849949884989e-06  1.7823948209547424e-02  2.5439892991913498e-02  3.2122931458068212e-03  2.9155811135490060e-02  1.0787199569729223e-02  1.1895754289168739e-02  3.8451022250207985e-05  1.2568232686441813e-05  4.9319711265319163e-03  2.9676566333912086e-06  5.5584753863262741e-03  2.5530944054249979e-02  1.2320762293868496e-02  2.9863392237415923e-03  6.0416624388620896e-03  2.1131995189696036e-04  2.3967674409414639e-02  2.2988860323295418e-02  1.4488233617744215e-05  1.9346618808458719e-05  8.2950255235718050e-03  1.0024915610104517e-05  7.4039157247068246e-03  1.1546045425361064e-03  2.6306440152222711e-02  1.8453531853030441e-06  8.0158773248826080e-03  1.2416169710198653e-02  2.0277003458758986e-04  2.4854359816391999e-03  2.8535593685099808e-02  2.9540225188271938e-05  1.4952563894459255e-02  2.2413580849040057e-05  3.4349015926147195e-06  4.6126298114646394e-06  1.3564822767799808e-05  6.1735162900320611e-05  2.3660160444776049e-02  2.8988316652603457e-02  2.6216837551203361e-02  2.7433722152204611e-02  2.8336040155625294e-02  1.3028418127326590e-02  7.1136361189620658e-06  1.0596560334110775e-02  2.0912613211609990e-02  2.3562249131321752e-02  1.9108185422548930e-03  1.1680851056993096e-04  3.8218113304825035e-05  2.6385584300330094e-02  2.9173202766088896e-02  2.0650939291731348e-02  3.7498657269972971e-04  1.1281560481251550e-05  8.9860297420137122e-03  1.9544909862439497e-02  1.2146103532545497e-02  2.0251850534228007e-02  1.8985208043483744e-02  1.9486424964163647e-02  2.9038975319193194e-02  1.9556147539982641e-02  4.5962562529583520e-04  6.5357216885242404e-06  7.7605067375853936e-06  1.2304987844216322e-05  4.7568431938524169e-05  1.6873392422020223e-04  2.9178309024125527e-02  2.9175617697518291e-02  2.9168450381319065e-02  1.9703600952701315e-02  2.9151194382647322e-02  1.3665995337755505e-05  5.4665297556594792e-06  2.8008272501350667e-02  1.8771005925392617e-02  1.5290335927834822e-05  2.3550622806278523e-02  1.7600317253516628e-06  1.5971570656876540e-05  8.8955285904059435e-06  4.6915519020850798e-03  1.5741728684799540e-02  1.6921807662675040e-02  4.3713794132455158e-03  5.2227128894754135e-03  6.1702394349716057e-03  2.9135245485424410e-02  1.8980648462862893e-02  2.6447075442713294e-02  9.8152902788095631e-04  3.1294033875051723e-03  1.6363517305008315e-06  1.0006144275078665e-05  2.5253384336390891e-02  2.7430566314361415e-02  2.0799230331524889e-02  3.5674178636886910e-05  2.1214039044213057e-02  7.3591561361672489e-03  1.8825843744735053e-02  1.2258937528905197e-02  2.3127190578228454e-03  1.7635177366565713e-05  1.6178082923818077e-02  2.8762342480144833e-02  2.7511873936794256e-02  2.6729763565965802e-02  2.1655890071957526e-04  2.7020549398058782e-02  2.9143038648542952e-02  2.9106415321270479e-02  2.9061974655577999e-02  2.9167889469587864e-02  2.9568144756599777e-02  2.6380247413454995e-02  3.1965329832067457e-05  2.0378622941682172e-02  2.7974766743625919e-02  1.5616169686015884e-04  1.8650819278663869e-02  1.4743996462566230e-04  2.9119805829958132e-02  2.7213829741041067e-02  1.5525350491224898e-02  2.9145041649693438e-02  1.4273049103129282e-02  2.7856371764692883e-02  1.4351923224708019e-05  2.4046562392412554e-02  2.0680094841018216e-02  5.5153609235161450e-06  1.0869904166627254e-05  2.6281520659239901e-02  6.6901203598385554e-06  3.4684868143976978e-06  2.8021109736285802e-02  6.9679269237434515e-04  3.2349560913980425e-03  2.3209568686663115e-03  3.5560158408987665e-03  1.2765811205823336e-03  2.8998574104027338e-02  2.8907239827042543e-02  2.2796991699006255e-02  1.4164719967932821e-03  8.1872591423311030e-04  1.1283716596549691e-03  5.5889734404397792e-04  2.6215909611768708e-02  2.9158785412030427e-02  2.6644406023751871e-02  2.8816543298681725e-02  5.9935391116922737e-04  2.8517103018425742e-02  2.8325318376718669e-02  2.1940194281369126e-02  1.2677878286467806e-03  9.1237439314417249e-06  6.5101274949981594e-06  2.7050325829934590e-02  2.7290802059249344e-02  2.9094524178620212e-02  2.9070205542775323e-02  2.8938087534672221e-02  6.3057109390777417e-03  3.6228951768254945e-06  2.4538600061122070e-02  2.4186142480431938e-02  2.5102042753554998e-02  2.5668681476315416e-02  2.4372071246449009e-02  2.1471818882915664e-02  7.8229633499394373e-03  9.2571711656441478e-06  9.0589080183625724e-04  2.2105127727186126e-06  3.5306077154280147e-04  2.7761392476130617e-02  2.8807925482262964e-02  2.9181502520489445e-02  4.6448895031266871e-03  4.9863184127931848e-06  7.9133982280087129e-03  1.0122018642994694e-05  1.9500574231036287e-02  2.6639530512277142e-02  5.7041054224830694e-06  1.1681511639714081e-02  1.5180873260198294e-02  2.6549569160935517e-03  4.5736251627846779e-06  2.0105306770626382e-02  2.9155229520483394e-02  1.9460513836243108e-02  7.0843503422206031e-03  2.9178551650831948e-02  2.0504907125275525e-02  1.7454570537009467e-02  2.8671366845858380e-02  2.5488169182542859e-06  3.6081885726553058e-05  2.5139358380677407e-02  2.9116415204696638e-02  2.9154156595169664e-02  2.3823265241300164e-02  2.0699605846845687e-02  5.2575422258280131e-06  1.9897123177008837e-02  6.1643979855473235e-06  2.9173123884869542e-06  1.1919182221612539e-02  2.6492119123743166e-02  8.3102700362115211e-06  8.7216522725556724e-03  4.2958577980223797e-06  2.3639844852916626e-02  2.3512770740415731e-02  2.4934349506852114e-02  2.5988224377463408e-02  2.3102797436455429e-02  2.23629309043